                         Program Version 4.0.1.2 - RELEASE -
|  1> %pal nprocs 6 end
|  2> %maxcore 1000
|  3> ! b3lyp TIGHTSCF nopop D3BJ
|  4> ! cc-pvdz def2/J RIJCOSX
|  5> ! Opt
|  6>
|  7> %geom
|  8> maxiter 60
|  9> TolE 1e-4
| 10> TolRMSG 2e-3
| 11> TolMaxG 3e-3
| 12> TolRMSD 2e-2
| 13> TolMaxD 3e-2
| 14> end
| 15>
| 16> *xyz 0 1
| 17> C 3.0947 -0.5003 -0.0082
| 18> C 1.612 -0.6253 -0.1136
| 19> N 1.0547 -1.8468 -0.3273
| 20> N 0.789 0.3719 -0.0179
| 21> C 3.7599 0.6423 0.1999
| 22> N -3.9077 1.5637 -0.093
| 23> C -2.5518 1.5713 -0.1311
| 24> O -1.9525 2.6348 -0.248
| 25> N -1.9165 0.3679 -0.0319
| 26> C -2.4282 -0.8967 0.1027
| 27> O -1.7399 -1.9095 0.1823
| 28> H 3.6489 -1.4252 -0.1388
| 29> H 1.5208 -2.6468 0.0814
| 30> H 0.0457 -1.8761 -0.1534
| 31> H 1.3008 1.249 0.1179
| 32> H 4.8444 0.6341 0.2455
| 33> H 3.279 1.6044 0.3294
| 34> H -4.3471 0.9942 0.6167
| 35> H -4.282 2.507 -0.116
| 36> H -0.8925 0.42 -0.0721
| 37> H -3.5272 -0.9423 0.1217
| 38> *
| 39>
| 40>
| 41>                          ****END OF INPUT****
 Total Charge           Charge          ....    0
 Multiplicity           Mult            ....    1
 Number of Electrons    NEL             ....   84
Dispersion correction           -0.031541620
FINAL SINGLE POINT ENERGY      -565.774941026299
Dispersion correction            ... done
Dispersion correction           -0.031083512
FINAL SINGLE POINT ENERGY      -565.782367842036
Dispersion correction            ... done
Dispersion correction           -0.031055570
FINAL SINGLE POINT ENERGY      -565.784051424093
Dispersion correction            ... done
FINAL SINGLE POINT ENERGY      -565.784585633390
FINAL SINGLE POINT ENERGY      -565.784851517670
FINAL SINGLE POINT ENERGY      -565.785047653401
Dispersion correction            ... done
Dispersion correction           -0.031154695
FINAL SINGLE POINT ENERGY      -565.785191767567
Dispersion correction            ... done
Dispersion correction           -0.031182901
FINAL SINGLE POINT ENERGY      -565.785287030257
Dispersion correction            ... done
                    ***********************HURRAY********************

CARTESIAN COORDINATES (ANGSTROEM)
---------------------------------
  C      3.106977   -0.512711   -0.052843
  C      1.619795   -0.581065   -0.128232
  N      1.100525   -1.841851   -0.134026
  N      0.839046    0.447649   -0.224113
  C      3.780632    0.581577    0.313726
  N     -3.959296    1.570537    0.045537
  C     -2.585894    1.600049   -0.135315
  O     -1.979560    2.619936   -0.410967
  N     -1.917475    0.372995   -0.027399
  C     -2.482485   -0.862553    0.024735
  O     -1.850005   -1.911214    0.086274
  H      3.648243   -1.430085   -0.308858
  H      1.662874   -2.589582    0.250810
  H      0.081809   -1.945205   -0.061660
  H      1.360803    1.317880   -0.332337
  H      4.871918    0.596938    0.349386
  H      3.259795    1.499657    0.600038
  H     -4.344193    0.906464    0.708570
  H     -4.358625    2.501620    0.110241
  H     -0.854616    0.423685   -0.122118
  H     -3.595770   -0.873123   -0.005248

 Multiplicity           Mult            ....    1
 Number of Electrons    NEL             ....   84
 Basis Dimension        Dim             ....  204

ORBITAL ENERGIES
----------------

  NO   OCC          E(Eh)            E(eV)
   0   2.0000     -19.123305      -520.3716
   1   2.0000     -19.100559      -519.7526
   2   2.0000     -14.348772      -390.4499
   3   2.0000     -14.345313      -390.3558
   4   2.0000     -14.332737      -390.0136
   5   2.0000     -14.291688      -388.8966
   6   2.0000     -10.311768      -280.5975
   7   2.0000     -10.294600      -280.1303
   8   2.0000     -10.263264      -279.2776
   9   2.0000     -10.208918      -277.7988
  10   2.0000     -10.206569      -277.7349
  11   2.0000      -1.051018       -28.5997
  12   2.0000      -1.034581       -28.1524
  13   2.0000      -0.944412       -25.6988
  14   2.0000      -0.923355       -25.1258
  15   2.0000      -0.886717       -24.1288
  16   2.0000      -0.845725       -23.0134
  17   2.0000      -0.781440       -21.2641
  18   2.0000      -0.647743       -17.6260
  19   2.0000      -0.639802       -17.4099
  20   2.0000      -0.602519       -16.3954
  21   2.0000      -0.567229       -15.4351
  22   2.0000      -0.553744       -15.0681
  23   2.0000      -0.521935       -14.2026
  24   2.0000      -0.504213       -13.7203
  25   2.0000      -0.492482       -13.4011
  26   2.0000      -0.463111       -12.6019
  27   2.0000      -0.454060       -12.3556
  28   2.0000      -0.439250       -11.9526
  29   2.0000      -0.425040       -11.5659
  30   2.0000      -0.423448       -11.5226
  31   2.0000      -0.411435       -11.1957
  32   2.0000      -0.385834       -10.4991
  33   2.0000      -0.383852       -10.4451
  34   2.0000      -0.381148       -10.3716
  35   2.0000      -0.290633        -7.9085
  36   2.0000      -0.283720        -7.7204
  37   2.0000      -0.276265        -7.5175
  38   2.0000      -0.266363        -7.2481
  39   2.0000      -0.258289        -7.0284
  40   2.0000      -0.252889        -6.8815
  41   2.0000      -0.234404        -6.3784
  42   0.0000      -0.038098        -1.0367
  43   0.0000      -0.009999        -0.2721
  44   0.0000       0.051771         1.4088
  45   0.0000       0.060597         1.6489
  46   0.0000       0.072889         1.9834

-------
TIMINGS
-------

Dispersion correction           -0.031192288
FINAL SINGLE POINT ENERGY      -565.785352803126

DIPOLE MOMENT
-------------
                                X             Y             Z
Electronic contribution:     -5.66057       0.54107      -0.83390
Nuclear contribution   :      5.92264      -0.92465       1.61525
                        -----------------------------------------
Total Dipole Moment    :      0.26207      -0.38358       0.78135
                        -----------------------------------------
Magnitude (a.u.)       :      0.90902
Magnitude (Debye)      :      2.31055

                             ****ORCA TERMINATED NORMALLY****
TOTAL RUN TIME: 0 days 0 hours 4 minutes 21 seconds 694 msec
