                         Program Version 4.0.1.2 - RELEASE -
|  1> %pal nprocs 6 end
|  2> %maxcore 1000
|  3> ! b3lyp TIGHTSCF nopop D3BJ
|  4> ! cc-pvdz def2/J RIJCOSX
|  5> ! Opt
|  6>
|  7> %geom
|  8> maxiter 60
|  9> TolE 1e-4
| 10> TolRMSG 2e-3
| 11> TolMaxG 3e-3
| 12> TolRMSD 2e-2
| 13> TolMaxD 3e-2
| 14> end
| 15>
| 16> *xyz 0 1
| 17> C -4.5512 0.3904 0.0003
| 18> C -3.941 -0.801 0.0011
| 19> C -4.6588 -2.1106 0.003
| 20> H -3.9739 1.3099 -0.0011
| 21> H -5.6333 0.4781 0.001
| 22> H -2.8539 -0.8395 0.0003
| 23> H -4.3818 -2.6887 -0.8838
| 24> H -5.7462 -1.9859 0.0037
| 25> H -4.3805 -2.6869 0.8906
| 26> *
| 27>
| 28>
| 29>                          ****END OF INPUT****
 Total Charge           Charge          ....    0
 Multiplicity           Mult            ....    1
 Number of Electrons    NEL             ....   24
Dispersion correction           -0.008063267
FINAL SINGLE POINT ENERGY      -117.831978604777
Dispersion correction            ... done
Dispersion correction           -0.008028257
FINAL SINGLE POINT ENERGY      -117.832518360335
Dispersion correction            ... done
                    ***********************HURRAY********************

CARTESIAN COORDINATES (ANGSTROEM)
---------------------------------
  C     -4.548111    0.402948    0.000281
  C     -3.949909   -0.791949    0.001069
  C     -4.658482   -2.117093    0.002994
  H     -3.964644    1.328146   -0.001097
  H     -5.639812    0.499001    0.000999
  H     -2.852063   -0.832965    0.000308
  H     -4.377427   -2.714679   -0.883460
  H     -5.754068   -1.994854    0.003693
  H     -4.376084   -2.712756    0.890313

 Multiplicity           Mult            ....    1
 Number of Electrons    NEL             ....   24
 Basis Dimension        Dim             ....   72

ORBITAL ENERGIES
----------------

  NO   OCC          E(Eh)            E(eV)
   0   2.0000     -10.188034      -277.2305
   1   2.0000     -10.184003      -277.1208
   2   2.0000     -10.174826      -276.8711
   3   2.0000      -0.780380       -21.2352
   4   2.0000      -0.679491       -18.4899
   5   2.0000      -0.546786       -14.8788
   6   2.0000      -0.459220       -12.4960
   7   2.0000      -0.415181       -11.2976
   8   2.0000      -0.406639       -11.0652
   9   2.0000      -0.365963        -9.9584
  10   2.0000      -0.340645        -9.2694
  11   2.0000      -0.252197        -6.8626
  12   0.0000       0.021016         0.5719
  13   0.0000       0.073810         2.0085
  14   0.0000       0.098681         2.6852
  15   0.0000       0.109882         2.9900
  16   0.0000       0.138234         3.7616

-------
TIMINGS
-------

Dispersion correction           -0.008019179
FINAL SINGLE POINT ENERGY      -117.832562170665

DIPOLE MOMENT
-------------
                                X             Y             Z
Electronic contribution:      0.54777       0.98267      -0.00151
Nuclear contribution   :     -0.52305      -1.13746       0.00166
                        -----------------------------------------
Total Dipole Moment    :      0.02472      -0.15479       0.00015
                        -----------------------------------------
Magnitude (a.u.)       :      0.15675
Magnitude (Debye)      :      0.39844

                             ****ORCA TERMINATED NORMALLY****
TOTAL RUN TIME: 0 days 0 hours 0 minutes 19 seconds 549 msec
