                         Program Version 4.0.1.2 - RELEASE -
|  1> %pal nprocs 6 end
|  2> %maxcore 1000
|  3> ! b3lyp TIGHTSCF nopop D3BJ
|  4> ! cc-pvdz def2/J RIJCOSX
|  5> ! Opt
|  6>
|  7> %geom
|  8> maxiter 60
|  9> TolE 1e-4
| 10> TolRMSG 2e-3
| 11> TolMaxG 3e-3
| 12> TolRMSD 2e-2
| 13> TolMaxD 3e-2
| 14> end
| 15>
| 16> *xyz 0 1
| 17> N 5.0051 0.7097 -0.1883
| 18> C 2.9628 -0.6659 0.0037
| 19> C 1.6391 -0.8354 0.096
| 20> N 0.9759 -2.0355 0.1913
| 21> N 3.0545 1.8031 -0.1126
| 22> C 3.6476 0.6538 -0.0991
| 23> H 5.443 -0.0106 -0.7478
| 24> H 5.3007 1.6434 -0.4578
| 25> H 3.622 -1.5267 0.0099
| 26> H 0.9484 0.0032 0.0879
| 27> H 1.5581 -2.8145 0.4912
| 28> H 0.1038 -1.9824 0.715
| 29> H 2.0417 1.7054 -0.0376
| 30> *
| 31>
| 32>
| 33>                          ****END OF INPUT****
 Total Charge           Charge          ....    0
 Multiplicity           Mult            ....    1
 Number of Electrons    NEL             ....   46
Dispersion correction           -0.016735738
FINAL SINGLE POINT ENERGY      -282.623299251529
Dispersion correction            ... done
Dispersion correction           -0.016694761
FINAL SINGLE POINT ENERGY      -282.627421760406
Dispersion correction            ... done
Dispersion correction           -0.016689995
FINAL SINGLE POINT ENERGY      -282.628282184259
Dispersion correction            ... done
Dispersion correction           -0.016693932
FINAL SINGLE POINT ENERGY      -282.628405532971
Dispersion correction            ... done
                    ***********************HURRAY********************

CARTESIAN COORDINATES (ANGSTROEM)
---------------------------------
  N      4.981470    0.666692   -0.219397
  C      2.973771   -0.613037    0.045802
  C      1.644276   -0.827599    0.111989
  N      1.019128   -2.057109    0.180877
  N      3.028256    1.879377   -0.130991
  C      3.589338    0.720849   -0.120106
  H      5.348920   -0.120534   -0.745814
  H      5.374472    1.555470   -0.519501
  H      3.650982   -1.470296    0.122312
  H      0.949662    0.016961    0.047248
  H      1.604625   -2.834038    0.475308
  H      0.112123   -2.066403    0.636179
  H      2.025678    1.797266    0.067894

 Multiplicity           Mult            ....    1
 Number of Electrons    NEL             ....   46
 Basis Dimension        Dim             ....  119

ORBITAL ENERGIES
----------------

  NO   OCC          E(Eh)            E(eV)
   0   2.0000     -14.352285      -390.5455
   1   2.0000     -14.315231      -389.5373
   2   2.0000     -14.262972      -388.1152
   3   2.0000     -10.235123      -278.5119
   4   2.0000     -10.231239      -278.4062
   5   2.0000     -10.171082      -276.7692
   6   2.0000      -0.926202       -25.2032
   7   2.0000      -0.915700       -24.9175
   8   2.0000      -0.819439       -22.2981
   9   2.0000      -0.743761       -20.2388
  10   2.0000      -0.620743       -16.8913
  11   2.0000      -0.559132       -15.2148
  12   2.0000      -0.533113       -14.5067
  13   2.0000      -0.498271       -13.5586
  14   2.0000      -0.470852       -12.8125
  15   2.0000      -0.426525       -11.6063
  16   2.0000      -0.412479       -11.2241
  17   2.0000      -0.379600       -10.3294
  18   2.0000      -0.368552       -10.0288
  19   2.0000      -0.336048        -9.1443
  20   2.0000      -0.238390        -6.4869
  21   2.0000      -0.228637        -6.2215
  22   2.0000      -0.201764        -5.4903
  23   0.0000      -0.002122        -0.0577
  24   0.0000       0.048120         1.3094
  25   0.0000       0.065786         1.7901
  26   0.0000       0.070900         1.9293
  27   0.0000       0.104271         2.8374

-------
TIMINGS
-------

Dispersion correction           -0.016697517
FINAL SINGLE POINT ENERGY      -282.628504274709

DIPOLE MOMENT
-------------
                                X             Y             Z
Electronic contribution:      0.41350       1.04410      -0.08111
Nuclear contribution   :     -0.95790      -2.54352       0.21966
                        -----------------------------------------
Total Dipole Moment    :     -0.54440      -1.49942       0.13855
                        -----------------------------------------
Magnitude (a.u.)       :      1.60119
Magnitude (Debye)      :      4.06990

                             ****ORCA TERMINATED NORMALLY****
TOTAL RUN TIME: 0 days 0 hours 1 minutes 9 seconds 360 msec
