                         Program Version 4.0.1.2 - RELEASE -
|  1> %pal nprocs 6 end
|  2> %maxcore 1000
|  3> ! b3lyp TIGHTSCF nopop D3BJ
|  4> ! cc-pvdz def2/J RIJCOSX
|  5> ! Opt
|  6>
|  7> %geom
|  8> maxiter 60
|  9> TolE 1e-4
| 10> TolRMSG 2e-3
| 11> TolMaxG 3e-3
| 12> TolRMSD 2e-2
| 13> TolMaxD 3e-2
| 14> end
| 15>
| 16> *xyz 0 1
| 17> C -2.4628 1.6213 -0.0023
| 18> O -1.8694 2.6907 -0.0041
| 19> N -1.8316 0.4102 -0.0013
| 20> C -2.4555 -0.8046 0.0003
| 21> O -1.8556 -1.8705 0.0007
| 22> H -3.5631 1.5533 -0.0015
| 23> H -0.8214 0.4133 -0.0022
| 24> H -3.5562 -0.7433 0.0012
| 25> *
| 26>
| 27>
| 28>                          ****END OF INPUT****
 Total Charge           Charge          ....    0
 Multiplicity           Mult            ....    1
 Number of Electrons    NEL             ....   38
Dispersion correction           -0.008377825
FINAL SINGLE POINT ENERGY      -283.109085048215
Dispersion correction            ... done
Dispersion correction           -0.008357716
FINAL SINGLE POINT ENERGY      -283.110386002155
Dispersion correction            ... done
Dispersion correction           -0.008354877
FINAL SINGLE POINT ENERGY      -283.110628255464
Dispersion correction            ... done
                    ***********************HURRAY********************

CARTESIAN COORDINATES (ANGSTROEM)
---------------------------------
  C     -2.460265    1.634937   -0.002620
  O     -1.891750    2.699170   -0.004177
  N     -1.809943    0.410264   -0.001377
  C     -2.452756   -0.818321    0.000280
  O     -1.878032   -1.879231    0.000977
  H     -3.570220    1.526990   -0.000911
  H     -0.789310    0.413506   -0.002145
  H     -3.563323   -0.716915    0.000773

 Multiplicity           Mult            ....    1
 Number of Electrons    NEL             ....   38
 Basis Dimension        Dim             ....   85

ORBITAL ENERGIES
----------------

  NO   OCC          E(Eh)            E(eV)
   0   2.0000     -19.147758      -521.0370
   1   2.0000     -19.147734      -521.0363
   2   2.0000     -14.398180      -391.7944
   3   2.0000     -10.321356      -280.8584
   4   2.0000     -10.321335      -280.8578
   5   2.0000      -1.080962       -29.4145
   6   2.0000      -1.065641       -28.9976
   7   2.0000      -0.954550       -25.9746
   8   2.0000      -0.675848       -18.3908
   9   2.0000      -0.659389       -17.9429
  10   2.0000      -0.542000       -14.7486
  11   2.0000      -0.500013       -13.6061
  12   2.0000      -0.462103       -12.5745
  13   2.0000      -0.455431       -12.3929
  14   2.0000      -0.442853       -12.0506
  15   2.0000      -0.402142       -10.9428
  16   2.0000      -0.306433        -8.3385
  17   2.0000      -0.302679        -8.2363
  18   2.0000      -0.273305        -7.4370
  19   0.0000      -0.040324        -1.0973
  20   0.0000       0.019729         0.5369
  21   0.0000       0.043059         1.1717
  22   0.0000       0.083527         2.2729
  23   0.0000       0.108531         2.9533

-------
TIMINGS
-------

Dispersion correction           -0.008358443
FINAL SINGLE POINT ENERGY      -283.110659860322

DIPOLE MOMENT
-------------
                                X             Y             Z
Electronic contribution:      1.06517       0.00313      -0.00128
Nuclear contribution   :     -1.54366      -0.00429       0.00174
                        -----------------------------------------
Total Dipole Moment    :     -0.47849      -0.00116       0.00045
                        -----------------------------------------
Magnitude (a.u.)       :      0.47849
Magnitude (Debye)      :      1.21623

                             ****ORCA TERMINATED NORMALLY****
TOTAL RUN TIME: 0 days 0 hours 0 minutes 24 seconds 811 msec
