                         Program Version 4.0.1.2 - RELEASE -
|  1> %pal nprocs 6 end
|  2> %maxcore 1000
|  3> ! b3lyp TIGHTSCF nopop D3BJ
|  4> ! cc-pvdz def2/J RIJCOSX
|  5> ! Opt
|  6>
|  7> %geom
|  8> maxiter 60
|  9> TolE 1e-4
| 10> TolRMSG 2e-3
| 11> TolMaxG 3e-3
| 12> TolRMSD 2e-2
| 13> TolMaxD 3e-2
| 14> end
| 15>
| 16> *xyz 0 1
| 17> C 5.3616 -1.068 -0.3782
| 18> N 4.1123 -1.3734 -0.286
| 19> C 3.2459 -0.3322 -0.0675
| 20> C 1.9237 -0.5369 0.045
| 21> N 0.8936 0.3448 0.2612
| 22> C 1.1237 1.6043 0.3929
| 23> H 5.7616 -0.0423 -0.2931
| 24> H 6.0999 -1.8671 -0.5535
| 25> H 3.6562 0.6687 0.0133
| 26> H 1.5828 -1.5686 -0.0468
| 27> H 2.1131 2.0861 0.3495
| 28> H 0.2717 2.282 0.5654
| 29> *
| 30>
| 31>
| 32>                          ****END OF INPUT****
 Total Charge           Charge          ....    0
 Multiplicity           Mult            ....    1
 Number of Electrons    NEL             ....   44
Dispersion correction           -0.015300493
FINAL SINGLE POINT ENERGY      -265.324417237143
Dispersion correction            ... done
Dispersion correction           -0.015201720
FINAL SINGLE POINT ENERGY      -265.326432040713
Dispersion correction            ... done
Dispersion correction           -0.015209217
FINAL SINGLE POINT ENERGY      -265.326724792211
Dispersion correction            ... done
FINAL SINGLE POINT ENERGY      -265.327182556524
FINAL SINGLE POINT ENERGY      -265.327122656124
FINAL SINGLE POINT ENERGY      -265.328006700276
FINAL SINGLE POINT ENERGY      -265.331272131731
FINAL SINGLE POINT ENERGY      -265.332494501605
Dispersion correction            ... done
Dispersion correction           -0.015213297
FINAL SINGLE POINT ENERGY      -265.332991703062
Dispersion correction            ... done
Dispersion correction           -0.015195394
FINAL SINGLE POINT ENERGY      -265.333099811997
Dispersion correction            ... done
                    ***********************HURRAY********************

CARTESIAN COORDINATES (ANGSTROEM)
---------------------------------
  C      5.397024   -1.099272   -0.365035
  N      4.159547   -1.351529   -0.164560
  C      3.262346   -0.285264   -0.218724
  C      1.947365   -0.496838    0.013766
  N      0.949165    0.467762   -0.094783
  C      1.070731    1.587044    0.502975
  H      5.785656   -0.085155   -0.584765
  H      6.123414   -1.920162   -0.321168
  H      3.627691    0.716666   -0.499856
  H      1.604149   -1.517534    0.209026
  H      1.911865    1.821856    1.181792
  H      0.307147    2.359826    0.343533

 Multiplicity           Mult            ....    1
 Number of Electrons    NEL             ....   44
 Basis Dimension        Dim             ....  114

ORBITAL ENERGIES
----------------

  NO   OCC          E(Eh)            E(eV)
   0   2.0000     -14.346301      -390.3827
   1   2.0000     -14.335159      -390.0795
   2   2.0000     -10.241631      -278.6890
   3   2.0000     -10.226937      -278.2891
   4   2.0000     -10.220072      -278.1023
   5   2.0000     -10.213493      -277.9233
   6   2.0000      -0.945321       -25.7235
   7   2.0000      -0.926359       -25.2075
   8   2.0000      -0.759161       -20.6578
   9   2.0000      -0.668422       -18.1887
  10   2.0000      -0.593455       -16.1487
  11   2.0000      -0.551929       -15.0187
  12   2.0000      -0.507414       -13.8074
  13   2.0000      -0.488789       -13.3006
  14   2.0000      -0.459755       -12.5106
  15   2.0000      -0.425451       -11.5771
  16   2.0000      -0.403912       -10.9910
  17   2.0000      -0.373732       -10.1698
  18   2.0000      -0.338019        -9.1980
  19   2.0000      -0.288857        -7.8602
  20   2.0000      -0.261458        -7.1146
  21   2.0000      -0.226444        -6.1619
  22   0.0000      -0.055086        -1.4990
  23   0.0000      -0.006147        -0.1673
  24   0.0000       0.062944         1.7128
  25   0.0000       0.076047         2.0694
  26   0.0000       0.085375         2.3232

-------
TIMINGS
-------

Dispersion correction           -0.015183947
FINAL SINGLE POINT ENERGY      -265.333114158935

DIPOLE MOMENT
-------------
                                X             Y             Z
Electronic contribution:     -1.89942      -1.57542      -0.36227
Nuclear contribution   :      2.30046       2.28353       0.58890
                        -----------------------------------------
Total Dipole Moment    :      0.40104       0.70811       0.22663
                        -----------------------------------------
Magnitude (a.u.)       :      0.84476
Magnitude (Debye)      :      2.14721

                             ****ORCA TERMINATED NORMALLY****
TOTAL RUN TIME: 0 days 0 hours 1 minutes 59 seconds 422 msec
