                         Program Version 4.0.1.2 - RELEASE -
|  1> %pal nprocs 6 end
|  2> %maxcore 1000
|  3> ! b3lyp TIGHTSCF nopop D3BJ
|  4> ! cc-pvdz def2/J RIJCOSX
|  5> ! Opt
|  6>
|  7> %geom
|  8> maxiter 60
|  9> TolE 1e-4
| 10> TolRMSG 2e-3
| 11> TolMaxG 3e-3
| 12> TolRMSD 2e-2
| 13> TolMaxD 3e-2
| 14> end
| 15>
| 16> *xyz 0 1
| 17> C 5.1842 -0.8395 0.0011
| 18> N 4.1047 -1.5399 -0.001
| 19> H 5.1627 0.2623 0.0028
| 20> H 6.1708 -1.3291 0.0011
| 21> H 3.2842 -0.9227 -0.0006
| 22> *
| 23>
| 24>
| 25>                          ****END OF INPUT****
 Total Charge           Charge          ....    0
 Multiplicity           Mult            ....    1
 Number of Electrons    NEL             ....   16
Dispersion correction           -0.002902477
FINAL SINGLE POINT ENERGY       -94.576666531525
Dispersion correction            ... done
Dispersion correction           -0.002904712
FINAL SINGLE POINT ENERGY       -94.577316335574
Dispersion correction            ... done
Dispersion correction           -0.002904174
FINAL SINGLE POINT ENERGY       -94.577472255635
Dispersion correction            ... done
                    ***********************HURRAY********************

CARTESIAN COORDINATES (ANGSTROEM)
---------------------------------
  C      5.167425   -0.828979    0.000902
  N      4.117783   -1.544672   -0.000971
  H      5.192431    0.278474    0.002909
  H      6.147694   -1.332899    0.001161
  H      3.281266   -0.940823   -0.000601

 Multiplicity           Mult            ....    1
 Number of Electrons    NEL             ....   16
 Basis Dimension        Dim             ....   43

ORBITAL ENERGIES
----------------

  NO   OCC          E(Eh)            E(eV)
   0   2.0000     -14.324186      -389.7809
   1   2.0000     -10.232118      -278.4301
   2   2.0000      -0.899597       -24.4793
   3   2.0000      -0.613043       -16.6817
   4   2.0000      -0.494049       -13.4437
   5   2.0000      -0.419882       -11.4256
   6   2.0000      -0.327249        -8.9049
   7   2.0000      -0.264512        -7.1977
   8   0.0000      -0.009046        -0.2462
   9   0.0000       0.067659         1.8411
  10   0.0000       0.096979         2.6389
  11   0.0000       0.149571         4.0700
  12   0.0000       0.278581         7.5806

-------
TIMINGS
-------

Dispersion correction           -0.002903266
FINAL SINGLE POINT ENERGY       -94.577496224513

DIPOLE MOMENT
-------------
                                X             Y             Z
Electronic contribution:     -0.56977      -0.69086      -0.00185
Nuclear contribution   :      0.68164       1.38264       0.00318
                        -----------------------------------------
Total Dipole Moment    :      0.11187       0.69179       0.00133
                        -----------------------------------------
Magnitude (a.u.)       :      0.70078
Magnitude (Debye)      :      1.78123

                             ****ORCA TERMINATED NORMALLY****
TOTAL RUN TIME: 0 days 0 hours 0 minutes 19 seconds 530 msec
