                         Program Version 4.0.1.2 - RELEASE -
|  1> %pal nprocs 6 end
|  2> %maxcore 1000
|  3> ! b3lyp TIGHTSCF nopop D3BJ
|  4> ! cc-pvdz def2/J RIJCOSX
|  5> ! Opt
|  6>
|  7> %geom
|  8> maxiter 60
|  9> TolE 1e-4
| 10> TolRMSG 2e-3
| 11> TolMaxG 3e-3
| 12> TolRMSD 2e-2
| 13> TolMaxD 3e-2
| 14> end
| 15>
| 16> *xyz 0 1
| 17> C 1.655 -0.675 -0.0846
| 18> N 0.9622 -1.8292 -0.2739
| 19> N 1.1053 0.4867 -0.0667
| 20> C 1.8282 1.6297 0.1258
| 21> N 3.0979 1.7182 0.3084
| 22> N -1.8645 0.4835 -0.0607
| 23> C -2.451 -0.7288 0.0715
| 24> O -1.7844 -1.7501 0.1992
| 25> C -3.9311 -0.7861 0.0566
| 26> C -4.7742 0.2457 -0.0754
| 27> H 2.7311 -0.8697 0.0411
| 28> H 1.3249 -2.6711 0.1558
| 29> H -0.0561 -1.7602 -0.1607
| 30> H 1.2409 2.5644 0.1228
| 31> H 3.5594 0.8145 0.2904
| 32> H -2.3596 1.3427 -0.2281
| 33> H -0.8453 0.516 -0.0867
| 34> H -4.3258 -1.7923 0.1645
| 35> H -4.4543 1.2733 -0.1838
| 36> H -5.8459 0.0687 -0.0715
| 37> *
| 38>
| 39>
| 40>                          ****END OF INPUT****
 Total Charge           Charge          ....    0
 Multiplicity           Mult            ....    1
 Number of Electrons    NEL             ....   76
Dispersion correction           -0.028690373
FINAL SINGLE POINT ENERGY      -490.536666345611
Dispersion correction            ... done
Dispersion correction           -0.028306394
FINAL SINGLE POINT ENERGY      -490.542280583765
Dispersion correction            ... done
Dispersion correction           -0.028336744
FINAL SINGLE POINT ENERGY      -490.543854578118
Dispersion correction            ... done
FINAL SINGLE POINT ENERGY      -490.544564279582
Dispersion correction            ... done
Dispersion correction           -0.028495747
FINAL SINGLE POINT ENERGY      -490.544882966658
Dispersion correction            ... done
Dispersion correction           -0.028547072
FINAL SINGLE POINT ENERGY      -490.545193134649
Dispersion correction            ... done
                    ***********************HURRAY********************

CARTESIAN COORDINATES (ANGSTROEM)
---------------------------------
  C      1.628011   -0.704827   -0.028732
  N      0.932058   -1.842325   -0.144055
  N      1.066648    0.470795   -0.050284
  C      1.887659    1.615757    0.057229
  N      3.143859    1.766298    0.243867
  N     -1.855209    0.502126    0.008693
  C     -2.453588   -0.702486    0.047822
  O     -1.827979   -1.773545    0.144779
  C     -3.946898   -0.777130   -0.018905
  C     -4.809513    0.242939   -0.048100
  H      2.721727   -0.825705    0.062492
  H      1.418897   -2.708411    0.060086
  H     -0.104032   -1.817705   -0.030617
  H      1.284722    2.533730   -0.035553
  H      3.630217    0.861817    0.331474
  H     -2.410302    1.327189   -0.172843
  H     -0.818002    0.567049   -0.028793
  H     -4.297501   -1.812337   -0.036679
  H     -4.490745    1.289892   -0.018735
  H     -5.887328    0.067780   -0.099146

 Multiplicity           Mult            ....    1
 Number of Electrons    NEL             ....   76
 Basis Dimension        Dim             ....  190

ORBITAL ENERGIES
----------------

  NO   OCC          E(Eh)            E(eV)
   0   2.0000     -19.111165      -520.0412
   1   2.0000     -14.351924      -390.5357
   2   2.0000     -14.339195      -390.1893
   3   2.0000     -14.310941      -389.4205
   4   2.0000     -14.293175      -388.9371
   5   2.0000     -10.292510      -280.0734
   6   2.0000     -10.274284      -279.5775
   7   2.0000     -10.238444      -278.6022
   8   2.0000     -10.211867      -277.8790
   9   2.0000     -10.206321      -277.7281
  10   2.0000      -1.033118       -28.1126
  11   2.0000      -0.962909       -26.2021
  12   2.0000      -0.904745       -24.6194
  13   2.0000      -0.898809       -24.4578
  14   2.0000      -0.835642       -22.7390
  15   2.0000      -0.787545       -21.4302
  16   2.0000      -0.656524       -17.8649
  17   2.0000      -0.641800       -17.4643
  18   2.0000      -0.582068       -15.8389
  19   2.0000      -0.570156       -15.5147
  20   2.0000      -0.550865       -14.9898
  21   2.0000      -0.535366       -14.5681
  22   2.0000      -0.492701       -13.4071
  23   2.0000      -0.482805       -13.1378
  24   2.0000      -0.459389       -12.5006
  25   2.0000      -0.452119       -12.3028
  26   2.0000      -0.413891       -11.2625
  27   2.0000      -0.411063       -11.1856
  28   2.0000      -0.403658       -10.9841
  29   2.0000      -0.399323       -10.8661
  30   2.0000      -0.379343       -10.3225
  31   2.0000      -0.323812        -8.8114
  32   2.0000      -0.291528        -7.9329
  33   2.0000      -0.287491        -7.8230
  34   2.0000      -0.266656        -7.2561
  35   2.0000      -0.261481        -7.1152
  36   2.0000      -0.245964        -6.6930
  37   2.0000      -0.231620        -6.3027
  38   0.0000      -0.044890        -1.2215
  39   0.0000      -0.022864        -0.6222
  40   0.0000       0.046767         1.2726
  41   0.0000       0.051103         1.3906
  42   0.0000       0.078306         2.1308

-------
TIMINGS
-------

Dispersion correction           -0.028538775
FINAL SINGLE POINT ENERGY      -490.545329294406

DIPOLE MOMENT
-------------
                                X             Y             Z
Electronic contribution:      1.92959      -1.42131       0.09463
Nuclear contribution   :     -2.80018       0.83527      -0.18483
                        -----------------------------------------
Total Dipole Moment    :     -0.87059      -0.58604      -0.09020
                        -----------------------------------------
Magnitude (a.u.)       :      1.05333
Magnitude (Debye)      :      2.67735

                             ****ORCA TERMINATED NORMALLY****
TOTAL RUN TIME: 0 days 0 hours 3 minutes 31 seconds 705 msec
