                         Program Version 4.0.1.2 - RELEASE -
|  1> %pal nprocs 3 end
|  2> %maxcore 1000
|  3> ! b3lyp TIGHTSCF D3BJ
|  4> ! cc-pvdz def2/J RIJCOSX
|  5> ! Opt
|  6>
|  7> %geom
|  8> maxiter 60
|  9> TolE 1e-4
| 10> TolRMSG 2e-3
| 11> TolMaxG 3e-3
| 12> TolRMSD 2e-2
| 13> TolMaxD 3e-2
| 14> end
| 15>
| 16> *xyz 0 1
| 17> C -4.5499 0.3955 0.0003
| 18> C -3.9449 -0.7955 0.0011
| 19> H -5.6326 0.4735 0.001
| 20> H -3.9743 1.3158 -0.001
| 21> H -2.8622 -0.8735 0.0004
| 22> H -4.5205 -1.7158 0.0024
| 23> *
| 24>
| 25>
| 26>                          ****END OF INPUT****
 Total Charge           Charge          ....    0
 Multiplicity           Mult            ....    1
 Number of Electrons    NEL             ....   16
Dispersion correction           -0.003944342
FINAL SINGLE POINT ENERGY       -78.536833075509
Dispersion correction            ... done
Dispersion correction           -0.003938621
FINAL SINGLE POINT ENERGY       -78.537066210836
Dispersion correction            ... done
                    ***********************HURRAY********************

CARTESIAN COORDINATES (ANGSTROEM)
---------------------------------
  C     -4.549714    0.394637    0.000315
  C     -3.945087   -0.794637    0.001085
  H     -5.641461    0.480642    0.000995
  H     -3.974920    1.326187   -0.001014
  H     -2.853340   -0.880641    0.000405
  H     -4.519879   -1.726188    0.002414

 Multiplicity           Mult            ....    1
 Number of Electrons    NEL             ....   16
 Basis Dimension        Dim             ....   48

ORBITAL ENERGIES
----------------

  NO   OCC          E(Eh)            E(eV)
   0   2.0000     -10.186569      -277.1906
   1   2.0000     -10.185773      -277.1690
   2   2.0000      -0.755970       -20.5710
   3   2.0000      -0.573130       -15.5957
   4   2.0000      -0.463095       -12.6015
   5   2.0000      -0.413979       -11.2650
   6   2.0000      -0.350793        -9.5456
   7   2.0000      -0.269749        -7.3402
   8   0.0000       0.010664         0.2902
   9   0.0000       0.083584         2.2744
  10   0.0000       0.106391         2.8950
  11   0.0000       0.114048         3.1034
  12   0.0000       0.188312         5.1242

MULLIKEN ATOMIC CHARGES
-----------------------
   0 C :   -0.043191
   1 C :   -0.043191
   2 H :    0.023542
   3 H :    0.019649
   4 H :    0.023542
   5 H :    0.019649
Sum of atomic charges:   -0.0000000

LOEWDIN ATOMIC CHARGES
----------------------
   0 C :   -0.049797
   1 C :   -0.049797
   2 H :    0.025233
   3 H :    0.024564
   4 H :    0.025234
   5 H :    0.024564

  Mayer bond orders larger than 0.1
B(  0-C ,  1-C ) :   2.1249 B(  0-C ,  2-H ) :   0.9539 B(  0-C ,  3-H ) :   0.9534
B(  1-C ,  4-H ) :   0.9539 B(  1-C ,  5-H ) :   0.9534

Dispersion correction           -0.003937409
FINAL SINGLE POINT ENERGY       -78.537088366168

DIPOLE MOMENT
-------------
                                X             Y             Z
Electronic contribution:     -0.00000      -0.00000      -0.00000
Nuclear contribution   :      0.00000      -0.00000      -0.00000
                        -----------------------------------------
Total Dipole Moment    :      0.00000      -0.00000      -0.00000
                        -----------------------------------------
Magnitude (a.u.)       :      0.00000
Magnitude (Debye)      :      0.00000

                             ****ORCA TERMINATED NORMALLY****
TOTAL RUN TIME: 0 days 0 hours 1 minutes 24 seconds 721 msec
