                         Program Version 4.0.1.2 - RELEASE -
|  1> %pal nprocs 6 end
|  2> %maxcore 1000
|  3> ! b3lyp TIGHTSCF nopop D3BJ
|  4> ! cc-pvdz def2/J RIJCOSX
|  5> ! Opt
|  6>
|  7> %geom
|  8> maxiter 60
|  9> TolE 1e-4
| 10> TolRMSG 2e-3
| 11> TolMaxG 3e-3
| 12> TolRMSD 2e-2
| 13> TolMaxD 3e-2
| 14> end
| 15>
| 16> *xyz 0 1
| 17> C 1.5269 1.704 -0.0036
| 18> N 2.8135 1.7579 0.0012
| 19> C 3.5573 0.6099 0.0041
| 20> C 3.1652 -0.6686 0.0029
| 21> H 0.9221 0.7833 -0.0057
| 22> H 0.9577 2.6477 -0.0058
| 23> H 4.6311 0.8003 0.0079
| 24> H 3.911 -1.4578 0.0057
| 25> H 2.1304 -0.9822 -0.0007
| 26> *
| 27>
| 28>
| 29>                          ****END OF INPUT****
 Total Charge           Charge          ....    0
 Multiplicity           Mult            ....    1
 Number of Electrons    NEL             ....   30
Dispersion correction           -0.009762657
FINAL SINGLE POINT ENERGY      -171.924998993991
Dispersion correction            ... done
Dispersion correction           -0.009673827
FINAL SINGLE POINT ENERGY      -171.926993516792
Dispersion correction            ... done
Dispersion correction           -0.009686156
FINAL SINGLE POINT ENERGY      -171.927243762337
Dispersion correction            ... done
                    ***********************HURRAY********************

CARTESIAN COORDINATES (ANGSTROEM)
---------------------------------
  C      1.515920    1.720528   -0.003614
  N      2.788087    1.778639    0.001260
  C      3.573318    0.595243    0.004014
  C      3.175450   -0.685837    0.003082
  H      0.920114    0.787419   -0.006517
  H      0.950211    2.662491   -0.005391
  H      4.647073    0.811557    0.007711
  H      3.920175   -1.484407    0.005800
  H      2.124853   -0.991134   -0.000343

 Multiplicity           Mult            ....    1
 Number of Electrons    NEL             ....   30
 Basis Dimension        Dim             ....   81

ORBITAL ENERGIES
----------------

  NO   OCC          E(Eh)            E(eV)
   0   2.0000     -14.331432      -389.9781
   1   2.0000     -10.232016      -278.4273
   2   2.0000     -10.217071      -278.0206
   3   2.0000     -10.191052      -277.3126
   4   2.0000      -0.924945       -25.1690
   5   2.0000      -0.755875       -20.5684
   6   2.0000      -0.648962       -17.6592
   7   2.0000      -0.545420       -14.8416
   8   2.0000      -0.498621       -13.5682
   9   2.0000      -0.459671       -12.5083
  10   2.0000      -0.419799       -11.4233
  11   2.0000      -0.368751       -10.0342
  12   2.0000      -0.368567       -10.0292
  13   2.0000      -0.254530        -6.9261
  14   2.0000      -0.252479        -6.8703
  15   0.0000      -0.053058        -1.4438
  16   0.0000       0.068706         1.8696
  17   0.0000       0.069091         1.8801
  18   0.0000       0.091583         2.4921
  19   0.0000       0.111466         3.0331

-------
TIMINGS
-------

Dispersion correction           -0.009698274
FINAL SINGLE POINT ENERGY      -171.927305034379

DIPOLE MOMENT
-------------
                                X             Y             Z
Electronic contribution:      0.68995       1.82406       0.00247
Nuclear contribution   :     -1.07241      -2.26167      -0.00399
                        -----------------------------------------
Total Dipole Moment    :     -0.38245      -0.43761      -0.00152
                        -----------------------------------------
Magnitude (a.u.)       :      0.58118
Magnitude (Debye)      :      1.47724

                             ****ORCA TERMINATED NORMALLY****
TOTAL RUN TIME: 0 days 0 hours 0 minutes 36 seconds 63 msec
