                         Program Version 4.0.1.2 - RELEASE -
|  1> %pal nprocs 6 end
|  2> %maxcore 1000
|  3> ! b3lyp TIGHTSCF nopop D3BJ
|  4> ! cc-pvdz def2/J RIJCOSX
|  5> ! Opt
|  6>
|  7> %geom
|  8> maxiter 60
|  9> TolE 1e-4
| 10> TolRMSG 2e-3
| 11> TolMaxG 3e-3
| 12> TolRMSD 2e-2
| 13> TolMaxD 3e-2
| 14> end
| 15>
| 16> *xyz 0 1
| 17> N 5.0282 0.6689 -0.011
| 18> C 3.0445 -0.6962 -0.0079
| 19> C 1.6677 -0.7194 -0.0041
| 20> N 0.9767 -1.9304 -0.0045
| 21> N 0.9254 0.3913 -0.0017
| 22> C 1.6059 1.546 -0.0025
| 23> N 2.9392 1.6833 -0.005
| 24> C 3.6393 0.5456 -0.0071
| 25> H 5.458 0.1539 0.7482
| 26> H 5.2449 1.6617 0.0351
| 27> H 3.6277 -1.6053 -0.0342
| 28> H 1.2674 -2.5345 0.7551
| 29> H -0.016 -1.7135 0.0435
| 30> H 1.0203 2.4587 -0.0053
| 31> *
| 32>
| 33>
| 34>                          ****END OF INPUT****
 Total Charge           Charge          ....    0
 Multiplicity           Mult            ....    1
 Number of Electrons    NEL             ....   58
Dispersion correction           -0.022972498
FINAL SINGLE POINT ENERGY      -374.888366429097
Dispersion correction            ... done
Dispersion correction           -0.022842367
FINAL SINGLE POINT ENERGY      -374.892472782896
Dispersion correction            ... done
Dispersion correction           -0.022790487
FINAL SINGLE POINT ENERGY      -374.894368241041
Dispersion correction            ... done
FINAL SINGLE POINT ENERGY      -374.895592920353
Dispersion correction            ... done
Dispersion correction           -0.022806379
FINAL SINGLE POINT ENERGY      -374.896255900765
Dispersion correction            ... done
Dispersion correction           -0.022813831
FINAL SINGLE POINT ENERGY      -374.896420677992
Dispersion correction            ... done
                    ***********************HURRAY********************

CARTESIAN COORDINATES (ANGSTROEM)
---------------------------------
  N      5.004828    0.738151    0.018659
  C      3.029380   -0.673152    0.098027
  C      1.631171   -0.700280    0.040321
  N      0.923159   -1.881808    0.020078
  N      0.895075    0.429751   -0.041313
  C      1.593453    1.565741   -0.078524
  N      2.917218    1.728245   -0.046885
  C      3.636630    0.587023    0.038162
  H      5.552695   -0.001447    0.443686
  H      5.313353    1.675559    0.258146
  H      3.617535   -1.590790    0.165769
  H      1.368545   -2.685042    0.450096
  H     -0.055034   -1.768012    0.269978
  H      1.001191    2.486161   -0.137600

 Multiplicity           Mult            ....    1
 Number of Electrons    NEL             ....   58
 Basis Dimension        Dim             ....  142

ORBITAL ENERGIES
----------------

  NO   OCC          E(Eh)            E(eV)
   0   2.0000     -14.340161      -390.2156
   1   2.0000     -14.340022      -390.2118
   2   2.0000     -14.301955      -389.1760
   3   2.0000     -14.301809      -389.1720
   4   2.0000     -10.257284      -279.1149
   5   2.0000     -10.257104      -279.1100
   6   2.0000     -10.235547      -278.5234
   7   2.0000     -10.177426      -276.9418
   8   2.0000      -0.978583       -26.6286
   9   2.0000      -0.935458       -25.4551
  10   2.0000      -0.896454       -24.3937
  11   2.0000      -0.835538       -22.7361
  12   2.0000      -0.755587       -20.5606
  13   2.0000      -0.645084       -17.5536
  14   2.0000      -0.622727       -16.9453
  15   2.0000      -0.550346       -14.9757
  16   2.0000      -0.535435       -14.5699
  17   2.0000      -0.494866       -13.4660
  18   2.0000      -0.466114       -12.6836
  19   2.0000      -0.455021       -12.3818
  20   2.0000      -0.426731       -11.6120
  21   2.0000      -0.424112       -11.5407
  22   2.0000      -0.404332       -11.0024
  23   2.0000      -0.358224        -9.7478
  24   2.0000      -0.312912        -8.5148
  25   2.0000      -0.280838        -7.6420
  26   2.0000      -0.243267        -6.6196
  27   2.0000      -0.232855        -6.3363
  28   2.0000      -0.223454        -6.0805
  29   0.0000      -0.000843        -0.0229
  30   0.0000       0.012314         0.3351
  31   0.0000       0.056126         1.5273
  32   0.0000       0.064848         1.7646
  33   0.0000       0.094288         2.5657

-------
TIMINGS
-------

Dispersion correction           -0.022816362
FINAL SINGLE POINT ENERGY      -374.896492917462

DIPOLE MOMENT
-------------
                                X             Y             Z
Electronic contribution:     -1.15635       1.81365      -0.48285
Nuclear contribution   :      1.84676      -2.87357       1.26030
                        -----------------------------------------
Total Dipole Moment    :      0.69040      -1.05992       0.77745
                        -----------------------------------------
Magnitude (a.u.)       :      1.48477
Magnitude (Debye)      :      3.77397

                             ****ORCA TERMINATED NORMALLY****
TOTAL RUN TIME: 0 days 0 hours 2 minutes 19 seconds 968 msec
