                         Program Version 4.0.1.2 - RELEASE -
|  1> %pal nprocs 6 end
|  2> %maxcore 1000
|  3> ! b3lyp TIGHTSCF nopop D3BJ
|  4> ! cc-pvdz def2/J RIJCOSX
|  5> ! Opt
|  6>
|  7> %geom
|  8> maxiter 60
|  9> TolE 1e-4
| 10> TolRMSG 2e-3
| 11> TolMaxG 3e-3
| 12> TolRMSD 2e-2
| 13> TolMaxD 3e-2
| 14> end
| 15>
| 16> *xyz 0 1
| 17> C -2.4551 1.6441 -0.0022
| 18> O -1.853 2.7105 -0.0036
| 19> H -3.5555 1.5905 -0.0015
| 20> H -1.9326 0.6742 -0.0015
| 21> *
| 22>
| 23>
| 24>                          ****END OF INPUT****
 Total Charge           Charge          ....    0
 Multiplicity           Mult            ....    1
 Number of Electrons    NEL             ....   16
Dispersion correction           -0.001833605
FINAL SINGLE POINT ENERGY      -114.449381505667
Dispersion correction            ... done
Dispersion correction           -0.001833783
FINAL SINGLE POINT ENERGY      -114.450244258894
Dispersion correction            ... done
Dispersion correction           -0.001833927
FINAL SINGLE POINT ENERGY      -114.450292094678
Dispersion correction            ... done
                    ***********************HURRAY********************

CARTESIAN COORDINATES (ANGSTROEM)
---------------------------------
  C     -2.449900    1.653074   -0.002202
  O     -1.858059    2.701506   -0.003591
  H     -3.569106    1.598091   -0.001503
  H     -1.919135    0.666629   -0.001503

 Multiplicity           Mult            ....    1
 Number of Electrons    NEL             ....   16
 Basis Dimension        Dim             ....   38

ORBITAL ENERGIES
----------------

  NO   OCC          E(Eh)            E(eV)
   0   2.0000     -19.156426      -521.2729
   1   2.0000     -10.286070      -279.8982
   2   2.0000      -1.059969       -28.8432
   3   2.0000      -0.628968       -17.1151
   4   2.0000      -0.488924       -13.3043
   5   2.0000      -0.446475       -12.1492
   6   2.0000      -0.397147       -10.8069
   7   2.0000      -0.263527        -7.1709
   8   0.0000      -0.040467        -1.1012
   9   0.0000       0.068111         1.8534
  10   0.0000       0.136392         3.7114
  11   0.0000       0.211688         5.7603
  12   0.0000       0.452421        12.3110

-------
TIMINGS
-------

Dispersion correction           -0.001833887
FINAL SINGLE POINT ENERGY      -114.450296342590

DIPOLE MOMENT
-------------
                                X             Y             Z
Electronic contribution:      0.70148       1.24369      -0.00165
Nuclear contribution   :     -1.10233      -1.95190       0.00260
                        -----------------------------------------
Total Dipole Moment    :     -0.40085      -0.70821       0.00095
                        -----------------------------------------
Magnitude (a.u.)       :      0.81378
Magnitude (Debye)      :      2.06848

                             ****ORCA TERMINATED NORMALLY****
TOTAL RUN TIME: 0 days 0 hours 0 minutes 17 seconds 529 msec
