                         Program Version 4.0.1.2 - RELEASE -
|  1> %pal nprocs 6 end
|  2> %maxcore 1000
|  3> ! b3lyp TIGHTSCF nopop D3BJ
|  4> ! cc-pvdz def2/J RIJCOSX
|  5> ! Opt
|  6>
|  7> %geom
|  8> maxiter 60
|  9> TolE 1e-4
| 10> TolRMSG 2e-3
| 11> TolMaxG 3e-3
| 12> TolRMSD 2e-2
| 13> TolMaxD 3e-2
| 14> end
| 15>
| 16> *xyz 0 1
| 17> N 3.8347 -1.6575 -0.1194
| 18> C 3.1389 -0.5703 -0.0754
| 19> C 1.6227 -0.642 -0.1219
| 20> N 1.0352 -1.865 -0.211
| 21> N 0.9156 0.4427 -0.0777
| 22> C -2.5112 1.5813 -0.1926
| 23> O -2.012 2.6525 -0.5099
| 24> N -1.802 0.4403 0.054
| 25> C -2.3397 -0.7637 0.4089
| 26> O -1.6795 -1.7737 0.6242
| 27> H 4.8343 -1.4261 -0.0879
| 28> H 3.5823 0.4352 -0.0096
| 29> H 1.6385 -2.641 0.0495
| 30> H 0.0829 -1.9336 0.1523
| 31> H 1.5216 1.2712 -0.0273
| 32> H -3.6005 1.4564 -0.0779
| 33> H -0.7828 0.4882 -0.0426
| 34> H -3.4391 -0.7531 0.4894
| 35> *
| 36>
| 37>
| 38>                          ****END OF INPUT****
 Total Charge           Charge          ....    0
 Multiplicity           Mult            ....    1
 Number of Electrons    NEL             ....   76
Dispersion correction           -0.025997560
FINAL SINGLE POINT ENERGY      -526.475994662660
Dispersion correction            ... done
Dispersion correction           -0.025643855
FINAL SINGLE POINT ENERGY      -526.480126117458
Dispersion correction            ... done
Dispersion correction           -0.025662219
FINAL SINGLE POINT ENERGY      -526.480751207089
Dispersion correction            ... done
Dispersion correction           -0.025666700
FINAL SINGLE POINT ENERGY      -526.480957581474
Dispersion correction            ... done
Dispersion correction           -0.025659150
FINAL SINGLE POINT ENERGY      -526.481019356161
Dispersion correction            ... done
                    ***********************HURRAY********************

CARTESIAN COORDINATES (ANGSTROEM)
---------------------------------
  N      3.809772   -1.692856    0.054441
  C      3.171713   -0.604865   -0.105239
  C      1.670915   -0.618022   -0.143623
  N      1.109110   -1.849968   -0.176118
  N      0.980317    0.477827   -0.151197
  C     -2.590786    1.593747   -0.112182
  O     -2.155485    2.689730   -0.379960
  N     -1.810727    0.460444    0.061445
  C     -2.376984   -0.748318    0.358663
  O     -1.763490   -1.794329    0.511288
  H      4.825221   -1.540468    0.078718
  H      3.627303    0.398348   -0.207270
  H      1.748213   -2.600790    0.068925
  H      0.131673   -1.923991    0.123543
  H      1.586175    1.301695   -0.171497
  H     -3.680391    1.382913    0.020735
  H     -0.756340    0.517937   -0.065139
  H     -3.486307   -0.707233    0.459567

 Multiplicity           Mult            ....    1
 Number of Electrons    NEL             ....   76
 Basis Dimension        Dim             ....  180

ORBITAL ENERGIES
----------------

  NO   OCC          E(Eh)            E(eV)
   0   2.0000     -19.136372      -520.7271
   1   2.0000     -19.127103      -520.4749
   2   2.0000     -14.362055      -390.8114
   3   2.0000     -14.350748      -390.5037
   4   2.0000     -14.333374      -390.0309
   5   2.0000     -14.312400      -389.4602
   6   2.0000     -10.305744      -280.4335
   7   2.0000     -10.298663      -280.2409
   8   2.0000     -10.270508      -279.4747
   9   2.0000     -10.260168      -279.1934
  10   2.0000      -1.059859       -28.8402
  11   2.0000      -1.044720       -28.4283
  12   2.0000      -0.964995       -26.2589
  13   2.0000      -0.929743       -25.2996
  14   2.0000      -0.916113       -24.9287
  15   2.0000      -0.858099       -23.3501
  16   2.0000      -0.675260       -18.3748
  17   2.0000      -0.650713       -17.7068
  18   2.0000      -0.628526       -17.1031
  19   2.0000      -0.580452       -15.7949
  20   2.0000      -0.546472       -14.8703
  21   2.0000      -0.522495       -14.2178
  22   2.0000      -0.509103       -13.8534
  23   2.0000      -0.486448       -13.2369
  24   2.0000      -0.461284       -12.5522
  25   2.0000      -0.442228       -12.0336
  26   2.0000      -0.441002       -12.0003
  27   2.0000      -0.437183       -11.8964
  28   2.0000      -0.422269       -11.4905
  29   2.0000      -0.406220       -11.0538
  30   2.0000      -0.383530       -10.4364
  31   2.0000      -0.332278        -9.0417
  32   2.0000      -0.312703        -8.5091
  33   2.0000      -0.295654        -8.0452
  34   2.0000      -0.281009        -7.6466
  35   2.0000      -0.273695        -7.4476
  36   2.0000      -0.257245        -7.0000
  37   2.0000      -0.246507        -6.7078
  38   0.0000      -0.060312        -1.6412
  39   0.0000      -0.025132        -0.6839
  40   0.0000       0.039051         1.0626
  41   0.0000       0.045935         1.2500
  42   0.0000       0.069354         1.8872

-------
TIMINGS
-------

Dispersion correction           -0.025659606
FINAL SINGLE POINT ENERGY      -526.481153681639

DIPOLE MOMENT
-------------
                                X             Y             Z
Electronic contribution:     -2.84698       1.17267      -0.09173
Nuclear contribution   :      3.86555      -1.40962       0.31970
                        -----------------------------------------
Total Dipole Moment    :      1.01857      -0.23695       0.22797
                        -----------------------------------------
Magnitude (a.u.)       :      1.07033
Magnitude (Debye)      :      2.72056

                             ****ORCA TERMINATED NORMALLY****
TOTAL RUN TIME: 0 days 0 hours 2 minutes 46 seconds 486 msec
