                         Program Version 4.0.1.2 - RELEASE -
|  1> %pal nprocs 6 end
|  2> %maxcore 1000
|  3> ! b3lyp TIGHTSCF nopop D3BJ
|  4> ! cc-pvdz def2/J RIJCOSX
|  5> ! Opt
|  6>
|  7> %geom
|  8> maxiter 60
|  9> TolE 1e-4
| 10> TolRMSG 2e-3
| 11> TolMaxG 3e-3
| 12> TolRMSD 2e-2
| 13> TolMaxD 3e-2
| 14> end
| 15>
| 16> *xyz 0 1
| 17> N -3.9818 1.6754 -0.0152
| 18> C -2.4202 -0.9109 -0.032
| 19> O -1.8445 -1.9934 -0.0385
| 20> C -3.9001 -0.7924 0.0014
| 21> C -4.6572 -2.0851 0.0304
| 22> C -4.502 0.4064 0.0074
| 23> H -3.0536 1.7716 -0.4173
| 24> H -4.6247 2.3805 -0.374
| 25> H -1.8538 0.033 -0.0386
| 26> H -4.4316 -2.6822 -0.8594
| 27> H -5.7405 -1.925 0.0546
| 28> H -4.3895 -2.667 0.9186
| 29> H -5.5915 0.4382 0.0608
| 30> *
| 31>
| 32>
| 33>                          ****END OF INPUT****
 Total Charge           Charge          ....    0
 Multiplicity           Mult            ....    1
 Number of Electrons    NEL             ....   46
Dispersion correction           -0.016924806
FINAL SINGLE POINT ENERGY      -286.454401297063
Dispersion correction            ... done
Dispersion correction           -0.016891562
FINAL SINGLE POINT ENERGY      -286.456345200588
Dispersion correction            ... done
Dispersion correction           -0.016898935
FINAL SINGLE POINT ENERGY      -286.456725049681
Dispersion correction            ... done
Dispersion correction           -0.016911199
FINAL SINGLE POINT ENERGY      -286.456124809010
Dispersion correction            ... done
Dispersion correction           -0.016903186
FINAL SINGLE POINT ENERGY      -286.456888730518
Dispersion correction            ... done
                    ***********************HURRAY********************

CARTESIAN COORDINATES (ANGSTROEM)
---------------------------------
  N     -3.985150    1.671019   -0.002427
  C     -2.445587   -0.903913   -0.064931
  O     -1.831862   -1.959512   -0.019797
  C     -3.897305   -0.798098   -0.024861
  C     -4.662521   -2.094915    0.045409
  C     -4.535329    0.409241   -0.037544
  H     -3.007030    1.767291   -0.255146
  H     -4.562914    2.414406   -0.378685
  H     -1.875346    0.061479   -0.146891
  H     -4.436078   -2.737450   -0.822090
  H     -5.749990   -1.923031    0.079960
  H     -4.370796   -2.675601    0.936803
  H     -5.631093    0.418187   -0.011601

 Multiplicity           Mult            ....    1
 Number of Electrons    NEL             ....   46
 Basis Dimension        Dim             ....  119

ORBITAL ENERGIES
----------------

  NO   OCC          E(Eh)            E(eV)
   0   2.0000     -19.110752      -520.0300
   1   2.0000     -14.362814      -390.8320
   2   2.0000     -10.251254      -278.9508
   3   2.0000     -10.244189      -278.7585
   4   2.0000     -10.179470      -276.9975
   5   2.0000     -10.176406      -276.9141
   6   2.0000      -1.015992       -27.6465
   7   2.0000      -0.934579       -25.4312
   8   2.0000      -0.786833       -21.4108
   9   2.0000      -0.676113       -18.3980
  10   2.0000      -0.639806       -17.4100
  11   2.0000      -0.543856       -14.7991
  12   2.0000      -0.530636       -14.4393
  13   2.0000      -0.499051       -13.5799
  14   2.0000      -0.432186       -11.7604
  15   2.0000      -0.413312       -11.2468
  16   2.0000      -0.400731       -10.9044
  17   2.0000      -0.378081       -10.2881
  18   2.0000      -0.370444       -10.0803
  19   2.0000      -0.360467        -9.8088
  20   2.0000      -0.349294        -9.5048
  21   2.0000      -0.233111        -6.3433
  22   2.0000      -0.217218        -5.9108
  23   0.0000      -0.035569        -0.9679
  24   0.0000       0.035477         0.9654
  25   0.0000       0.063079         1.7165
  26   0.0000       0.085050         2.3143
  27   0.0000       0.090663         2.4671

-------
TIMINGS
-------

Dispersion correction           -0.016903954
FINAL SINGLE POINT ENERGY      -286.456914697011

DIPOLE MOMENT
-------------
                                X             Y             Z
Electronic contribution:      3.50816       0.17521       0.05607
Nuclear contribution   :     -4.50076       1.44399      -0.41106
                        -----------------------------------------
Total Dipole Moment    :     -0.99260       1.61920      -0.35499
                        -----------------------------------------
Magnitude (a.u.)       :      1.93212
Magnitude (Debye)      :      4.91105

                             ****ORCA TERMINATED NORMALLY****
TOTAL RUN TIME: 0 days 0 hours 1 minutes 28 seconds 864 msec
