                         Program Version 4.0.1.2 - RELEASE -
|  1> %pal nprocs 6 end
|  2> %maxcore 1000
|  3> ! b3lyp TIGHTSCF nopop D3BJ
|  4> ! cc-pvdz def2/J RIJCOSX
|  5> ! Opt
|  6>
|  7> %geom
|  8> maxiter 60
|  9> TolE 1e-4
| 10> TolRMSG 2e-3
| 11> TolMaxG 3e-3
| 12> TolRMSD 2e-2
| 13> TolMaxD 3e-2
| 14> end
| 15>
| 16> *xyz 0 1
| 17> N 3.7621 -1.7642 -0.1129
| 18> C 3.1462 -0.6303 -0.1344
| 19> C 1.6314 -0.5867 -0.2362
| 20> N 0.9586 -1.766 -0.3043
| 21> N 1.015 0.5525 -0.2564
| 22> N -1.8302 0.4939 0.1061
| 23> C -2.4281 -0.7195 0.2036
| 24> O -1.7576 -1.7383 0.3544
| 25> C -3.9222 -0.7729 0.1216
| 26> C -4.4928 -2.1594 0.24
| 27> C -4.7097 0.3051 -0.043
| 28> H 4.7734 -1.604 -0.0463
| 29> H 3.6627 0.3406 -0.0854
| 30> H 1.4736 -2.5726 0.0301
| 31> H -0.0243 -1.749 -0.0183
| 32> H 1.6862 1.3267 -0.2031
| 33> H -2.2997 1.3438 -0.163
| 34> H -0.809 0.5069 0.025
| 35> H -4.1242 -2.793 -0.5748
| 36> H -5.5851 -2.1614 0.1812
| 37> H -4.2111 -2.6115 1.1978
| 38> H -4.3382 1.32 -0.1254
| 39> H -5.7895 0.198 -0.0974
| 40> *
| 41>
| 42>
| 43>                          ****END OF INPUT****
 Total Charge           Charge          ....    0
 Multiplicity           Mult            ....    1
 Number of Electrons    NEL             ....   84
Dispersion correction           -0.034372894
FINAL SINGLE POINT ENERGY      -529.839479387408
Dispersion correction            ... done
Dispersion correction           -0.034161201
FINAL SINGLE POINT ENERGY      -529.842933361350
Dispersion correction            ... done
Dispersion correction           -0.034195560
FINAL SINGLE POINT ENERGY      -529.843820722544
Dispersion correction            ... done
Dispersion correction           -0.034225465
FINAL SINGLE POINT ENERGY      -529.844073931111
Dispersion correction            ... done
Dispersion correction           -0.034254767
FINAL SINGLE POINT ENERGY      -529.844231647472
Dispersion correction            ... done
                    ***********************HURRAY********************

CARTESIAN COORDINATES (ANGSTROEM)
---------------------------------
  N      3.701994   -1.795567    0.008113
  C      3.134292   -0.663508   -0.111065
  C      1.638708   -0.577588   -0.238454
  N      1.000959   -1.763134   -0.363105
  N      1.027949    0.567499   -0.221659
  N     -1.851772    0.542190   -0.012530
  C     -2.432467   -0.663599    0.133576
  O     -1.781952   -1.711020    0.286588
  C     -3.943147   -0.760250    0.126283
  C     -4.462307   -2.164422    0.259308
  C     -4.749983    0.306449    0.026266
  H      4.719001   -1.702550    0.116875
  H      3.649975    0.316125   -0.096978
  H      1.585673   -2.569316   -0.165347
  H      0.002708   -1.802645   -0.107672
  H      1.712996    1.324715   -0.142155
  H     -2.414723    1.340392   -0.268290
  H     -0.816112    0.616248   -0.055464
  H     -4.001277   -2.822334   -0.492108
  H     -5.556970   -2.195483    0.165181
  H     -4.164555   -2.585602    1.233536
  H     -4.374462    1.329583   -0.040941
  H     -5.837029    0.192517    0.018941

 Multiplicity           Mult            ....    1
 Number of Electrons    NEL             ....   84
 Basis Dimension        Dim             ....  214

ORBITAL ENERGIES
----------------

  NO   OCC          E(Eh)            E(eV)
   0   2.0000     -19.095521      -519.6155
   1   2.0000     -14.340036      -390.2122
   2   2.0000     -14.322675      -389.7398
   3   2.0000     -14.315119      -389.5342
   4   2.0000     -14.297306      -389.0495
   5   2.0000     -10.275999      -279.6242
   6   2.0000     -10.255331      -279.0618
   7   2.0000     -10.249664      -278.9075
   8   2.0000     -10.198999      -277.5289
   9   2.0000     -10.189775      -277.2779
  10   2.0000     -10.174632      -276.8658
  11   2.0000      -1.018082       -27.7034
  12   2.0000      -0.950031       -25.8517
  13   2.0000      -0.903592       -24.5880
  14   2.0000      -0.884141       -24.0587
  15   2.0000      -0.841923       -22.9099
  16   2.0000      -0.794112       -21.6089
  17   2.0000      -0.682322       -18.5669
  18   2.0000      -0.660927       -17.9847
  19   2.0000      -0.617403       -16.8004
  20   2.0000      -0.565782       -15.3957
  21   2.0000      -0.542534       -14.7631
  22   2.0000      -0.530708       -14.4413
  23   2.0000      -0.512488       -13.9455
  24   2.0000      -0.497457       -13.5365
  25   2.0000      -0.472714       -12.8632
  26   2.0000      -0.445287       -12.1169
  27   2.0000      -0.435426       -11.8485
  28   2.0000      -0.425082       -11.5671
  29   2.0000      -0.417161       -11.3515
  30   2.0000      -0.399551       -10.8723
  31   2.0000      -0.392424       -10.6784
  32   2.0000      -0.375135       -10.2079
  33   2.0000      -0.364193        -9.9102
  34   2.0000      -0.360709        -9.8154
  35   2.0000      -0.319370        -8.6905
  36   2.0000      -0.296081        -8.0568
  37   2.0000      -0.271172        -7.3790
  38   2.0000      -0.262989        -7.1563
  39   2.0000      -0.248110        -6.7514
  40   2.0000      -0.244139        -6.6434
  41   2.0000      -0.229013        -6.2318
  42   0.0000      -0.048365        -1.3161
  43   0.0000      -0.026003        -0.7076
  44   0.0000       0.053047         1.4435
  45   0.0000       0.061370         1.6700
  46   0.0000       0.085200         2.3184

-------
TIMINGS
-------

Dispersion correction           -0.034282427
FINAL SINGLE POINT ENERGY      -529.844362263943

DIPOLE MOMENT
-------------
                                X             Y             Z
Electronic contribution:      6.49030       0.00152      -0.23594
Nuclear contribution   :     -5.88627       0.94465       0.23932
                        -----------------------------------------
Total Dipole Moment    :      0.60403       0.94618       0.00337
                        -----------------------------------------
Magnitude (a.u.)       :      1.12255
Magnitude (Debye)      :      2.85329

                             ****ORCA TERMINATED NORMALLY****
TOTAL RUN TIME: 0 days 0 hours 3 minutes 15 seconds 250 msec
