                         Program Version 4.0.1.2 - RELEASE -
|  1> %pal nprocs 6 end
|  2> %maxcore 1000
|  3> ! b3lyp TIGHTSCF nopop D3BJ
|  4> ! cc-pvdz def2/J RIJCOSX
|  5> ! Opt
|  6>
|  7> %geom
|  8> maxiter 60
|  9> TolE 1e-4
| 10> TolRMSG 2e-3
| 11> TolMaxG 3e-3
| 12> TolRMSD 2e-2
| 13> TolMaxD 3e-2
| 14> end
| 15>
| 16> *xyz 0 1
| 17> N -3.8424 1.658 0.0058
| 18> C -2.4896 1.6205 0.0066
| 19> O -1.8383 2.6585 0.0098
| 20> N -1.8909 0.3959 0.0027
| 21> C -2.4398 -0.86 -0.0033
| 22> O -1.7697 -1.8848 -0.0061
| 23> H -4.33 1.0283 0.6272
| 24> H -4.1937 2.6081 0.0694
| 25> H -0.881 0.4227 -0.0041
| 26> H -3.5395 -0.8787 -0.0189
| 27> *
| 28>
| 29>
| 30>                          ****END OF INPUT****
 Total Charge           Charge          ....    0
 Multiplicity           Mult            ....    1
 Number of Electrons    NEL             ....   46
Dispersion correction           -0.012112263
FINAL SINGLE POINT ENERGY      -338.458683722631
Dispersion correction            ... done
Dispersion correction           -0.012073660
FINAL SINGLE POINT ENERGY      -338.462361159900
Dispersion correction            ... done
Dispersion correction           -0.012078188
FINAL SINGLE POINT ENERGY      -338.463114746144
Dispersion correction            ... done
Dispersion correction           -0.012094431
FINAL SINGLE POINT ENERGY      -338.463235927811
Dispersion correction            ... done
Dispersion correction           -0.012096517
FINAL SINGLE POINT ENERGY      -338.463392787945
Dispersion correction            ... done
                    ***********************HURRAY********************

CARTESIAN COORDINATES (ANGSTROEM)
---------------------------------
  N     -3.856342    1.645442    0.049306
  C     -2.475758    1.659764   -0.011086
  O     -1.814693    2.667801   -0.155854
  N     -1.860604    0.395527    0.056778
  C     -2.447258   -0.853230   -0.017073
  O     -1.829342   -1.892048    0.044601
  H     -4.301077    0.951447    0.641543
  H     -4.237101    2.580817    0.160594
  H     -0.843258    0.421699    0.084910
  H     -3.549468   -0.808720   -0.164619

 Multiplicity           Mult            ....    1
 Number of Electrons    NEL             ....   46
 Basis Dimension        Dim             ....  104

ORBITAL ENERGIES
----------------

  NO   OCC          E(Eh)            E(eV)
   0   2.0000     -19.136217      -520.7229
   1   2.0000     -19.123107      -520.3662
   2   2.0000     -14.384035      -391.4095
   3   2.0000     -14.368344      -390.9825
   4   2.0000     -10.335304      -281.2379
   5   2.0000     -10.311131      -280.5801
   6   2.0000      -1.074331       -29.2340
   7   2.0000      -1.055394       -28.7187
   8   2.0000      -0.948517       -25.8105
   9   2.0000      -0.910751       -24.7828
  10   2.0000      -0.669811       -18.2265
  11   2.0000      -0.633970       -17.2512
  12   2.0000      -0.572966       -15.5912
  13   2.0000      -0.518023       -14.0961
  14   2.0000      -0.484799       -13.1921
  15   2.0000      -0.461480       -12.5575
  16   2.0000      -0.442374       -12.0376
  17   2.0000      -0.432421       -11.7668
  18   2.0000      -0.403165       -10.9707
  19   2.0000      -0.305871        -8.3232
  20   2.0000      -0.292309        -7.9541
  21   2.0000      -0.283718        -7.7204
  22   2.0000      -0.269572        -7.3354
  23   0.0000      -0.025041        -0.6814
  24   0.0000       0.038522         1.0482
  25   0.0000       0.058740         1.5984
  26   0.0000       0.066328         1.8049
  27   0.0000       0.099364         2.7038

-------
TIMINGS
-------

Dispersion correction           -0.012094227
FINAL SINGLE POINT ENERGY      -338.463464083308

DIPOLE MOMENT
-------------
                                X             Y             Z
Electronic contribution:      2.04688      -0.38054      -0.22112
Nuclear contribution   :     -3.14806       0.65371       0.67257
                        -----------------------------------------
Total Dipole Moment    :     -1.10118       0.27317       0.45145
                        -----------------------------------------
Magnitude (a.u.)       :      1.22107
Magnitude (Debye)      :      3.10372

                             ****ORCA TERMINATED NORMALLY****
TOTAL RUN TIME: 0 days 0 hours 1 minutes 6 seconds 322 msec
