                         Program Version 4.0.1.2 - RELEASE -
|  1> %pal nprocs 6 end
|  2> %maxcore 1000
|  3> ! b3lyp TIGHTSCF nopop D3BJ
|  4> ! cc-pvdz def2/J RIJCOSX
|  5> ! Opt
|  6>
|  7> %geom
|  8> maxiter 60
|  9> TolE 1e-4
| 10> TolRMSG 2e-3
| 11> TolMaxG 3e-3
| 12> TolRMSD 2e-2
| 13> TolMaxD 3e-2
| 14> end
| 15>
| 16> *xyz 0 1
| 17> N 4.0302 -1.5322 0.0072
| 18> C 3.1268 -0.5771 -0.0059
| 19> C 1.6388 -0.7098 0.0059
| 20> N 1.0499 -1.9215 0.0332
| 21> N 0.9285 0.3964 -0.0044
| 22> N -3.8372 1.5878 -0.022
| 23> C -2.4658 1.6361 -0.0082
| 24> O -1.8608 2.6992 -0.0037
| 25> N -1.8487 0.4055 -0.0001
| 26> C -2.4546 -0.8245 -0.0116
| 27> O -1.8312 -1.8882 0.0045
| 28> H 4.9469 -1.0639 -0.0152
| 29> H 3.4784 0.4499 -0.0323
| 30> H 1.6196 -2.7567 0.1618
| 31> H 0.0365 -2.0043 0.1121
| 32> H 1.5402 1.2194 -0.0307
| 33> H -4.4071 0.8079 0.2863
| 34> H -4.3147 2.4715 0.0341
| 35> H -0.8219 0.4185 0.0026
| 36> H -3.5531 -0.829 -0.0403
| 37> *
| 38>
| 39>
| 40>                          ****END OF INPUT****
 Total Charge           Charge          ....    0
 Multiplicity           Mult            ....    1
 Number of Electrons    NEL             ....   84
Dispersion correction           -0.029464391
FINAL SINGLE POINT ENERGY      -581.820284521040
Dispersion correction            ... done
Dispersion correction           -0.029352019
FINAL SINGLE POINT ENERGY      -581.829203401067
Dispersion correction            ... done
Dispersion correction           -0.029544434
FINAL SINGLE POINT ENERGY      -581.831891818393
Dispersion correction            ... done
FINAL SINGLE POINT ENERGY      -581.832400189162
FINAL SINGLE POINT ENERGY      -581.832674083781
Dispersion correction            ... done
Dispersion correction           -0.029617967
FINAL SINGLE POINT ENERGY      -581.832839926443
Dispersion correction            ... done
Dispersion correction           -0.029628153
FINAL SINGLE POINT ENERGY      -581.833075045082
Dispersion correction            ... done
                    ***********************HURRAY********************

CARTESIAN COORDINATES (ANGSTROEM)
---------------------------------
  N      3.820649   -1.630338    0.035511
  C      3.148778   -0.551479    0.024543
  C      1.650775   -0.599053    0.009309
  N      1.113876   -1.830700   -0.058789
  N      0.938083    0.483871    0.060390
  N     -3.928207    1.537237   -0.013557
  C     -2.546553    1.601600   -0.113543
  O     -1.949225    2.636780   -0.343655
  N     -1.857959    0.384801    0.016642
  C     -2.410463   -0.858161   -0.009473
  O     -1.780816   -1.908174    0.059745
  H      4.830744   -1.442896    0.056610
  H      3.575919    0.469154    0.038772
  H      1.761225   -2.608299   -0.021401
  H      0.102870   -1.950026    0.053872
  H      1.521755    1.322016    0.091536
  H     -4.326424    0.868489    0.637648
  H     -4.347457    2.460863    0.036804
  H     -0.799424    0.473288    0.030174
  H     -3.517445   -0.873972   -0.117837

 Multiplicity           Mult            ....    1
 Number of Electrons    NEL             ....   84
 Basis Dimension        Dim             ....  199

ORBITAL ENERGIES
----------------

  NO   OCC          E(Eh)            E(eV)
   0   2.0000     -19.126138      -520.4487
   1   2.0000     -19.104139      -519.8500
   2   2.0000     -14.351301      -390.5187
   3   2.0000     -14.350411      -390.4945
   4   2.0000     -14.344261      -390.3272
   5   2.0000     -14.326228      -389.8365
   6   2.0000     -14.300386      -389.1333
   7   2.0000     -10.314798      -280.6799
   8   2.0000     -10.297422      -280.2071
   9   2.0000     -10.261961      -279.2422
  10   2.0000     -10.253440      -279.0103
  11   2.0000      -1.054227       -28.6870
  12   2.0000      -1.037731       -28.2381
  13   2.0000      -0.957538       -26.0559
  14   2.0000      -0.927058       -25.2265
  15   2.0000      -0.909475       -24.7481
  16   2.0000      -0.889815       -24.2131
  17   2.0000      -0.848402       -23.0862
  18   2.0000      -0.668603       -18.1936
  19   2.0000      -0.649065       -17.6620
  20   2.0000      -0.606388       -16.5007
  21   2.0000      -0.575778       -15.6677
  22   2.0000      -0.555814       -15.1245
  23   2.0000      -0.541276       -14.7289
  24   2.0000      -0.508011       -13.8237
  25   2.0000      -0.500162       -13.6101
  26   2.0000      -0.475645       -12.9430
  27   2.0000      -0.453518       -12.3409
  28   2.0000      -0.441413       -12.0114
  29   2.0000      -0.432715       -11.7748
  30   2.0000      -0.427096       -11.6219
  31   2.0000      -0.414195       -11.2708
  32   2.0000      -0.401891       -10.9360
  33   2.0000      -0.387119       -10.5341
  34   2.0000      -0.324427        -8.8281
  35   2.0000      -0.302859        -8.2412
  36   2.0000      -0.290510        -7.9052
  37   2.0000      -0.278655        -7.5826
  38   2.0000      -0.270347        -7.3565
  39   2.0000      -0.261189        -7.1073
  40   2.0000      -0.255851        -6.9621
  41   2.0000      -0.234013        -6.3678
  42   0.0000      -0.052504        -1.4287
  43   0.0000      -0.012550        -0.3415
  44   0.0000       0.050534         1.3751
  45   0.0000       0.051291         1.3957
  46   0.0000       0.076577         2.0838

-------
TIMINGS
-------

Dispersion correction           -0.029628670
FINAL SINGLE POINT ENERGY      -581.833154603500

DIPOLE MOMENT
-------------
                                X             Y             Z
Electronic contribution:     -1.85643       0.75165      -0.41093
Nuclear contribution   :      2.10957      -0.70027       0.97870
                        -----------------------------------------
Total Dipole Moment    :      0.25313       0.05138       0.56778
                        -----------------------------------------
Magnitude (a.u.)       :      0.62377
Magnitude (Debye)      :      1.58549

                             ****ORCA TERMINATED NORMALLY****
TOTAL RUN TIME: 0 days 0 hours 4 minutes 3 seconds 441 msec
