                         Program Version 4.0.1.2 - RELEASE -
|  1> %pal nprocs 6 end
|  2> %maxcore 1000
|  3> ! b3lyp TIGHTSCF nopop D3BJ
|  4> ! cc-pvdz def2/J RIJCOSX
|  5> ! Opt
|  6>
|  7> %geom
|  8> maxiter 60
|  9> TolE 1e-4
| 10> TolRMSG 2e-3
| 11> TolMaxG 3e-3
| 12> TolRMSD 2e-2
| 13> TolMaxD 3e-2
| 14> end
| 15>
| 16> *xyz 0 1
| 17> C 3.0718 -0.6098 -0.0748
| 18> C 1.6927 -0.6195 -0.0581
| 19> N 1.0131 -1.8322 -0.14
| 20> N 0.963 0.503 0.032
| 21> C 1.66 1.6507 0.1074
| 22> N 2.9941 1.7756 0.1005
| 23> C 3.6764 0.6227 0.0079
| 24> N -1.9532 0.3366 -0.1569
| 25> C -2.4859 -0.871 0.156
| 26> O -1.8037 -1.8441 0.443
| 27> H 3.6496 -1.5193 -0.1602
| 28> H 1.3264 -2.5022 0.5521
| 29> H 0.0026 -1.6927 -0.0369
| 30> H 1.0862 2.568 0.1827
| 31> H 4.7579 0.7187 -0.0027
| 32> H -2.5114 1.1333 -0.426
| 33> H -0.9364 0.4302 -0.1585
| 34> H -3.5872 -0.8836 0.1203
| 35> *
| 36>
| 37>
| 38>                          ****END OF INPUT****
 Total Charge           Charge          ....    0
 Multiplicity           Mult            ....    1
 Number of Electrons    NEL             ....   74
Dispersion correction           -0.028689944
FINAL SINGLE POINT ENERGY      -489.386761941911
Dispersion correction            ... done
Dispersion correction           -0.028360385
FINAL SINGLE POINT ENERGY      -489.390569107370
Dispersion correction            ... done
Dispersion correction           -0.028284483
FINAL SINGLE POINT ENERGY      -489.392400561057
Dispersion correction            ... done
FINAL SINGLE POINT ENERGY      -489.393713692248
FINAL SINGLE POINT ENERGY      -489.394884031806
FINAL SINGLE POINT ENERGY      -489.395883994565
FINAL SINGLE POINT ENERGY      -489.396411721577
Dispersion correction            ... done
Dispersion correction           -0.028549311
FINAL SINGLE POINT ENERGY      -489.396566856663
Dispersion correction            ... done
Dispersion correction           -0.028524711
FINAL SINGLE POINT ENERGY      -489.396746389448
Dispersion correction            ... done
                    ***********************HURRAY********************

CARTESIAN COORDINATES (ANGSTROEM)
---------------------------------
  C      3.077234   -0.598411    0.103470
  C      1.673341   -0.657927   -0.079966
  N      1.002111   -1.830186   -0.184325
  N      0.966025    0.492849   -0.198883
  C      1.654916    1.639147   -0.148531
  N      2.966371    1.805044    0.001841
  C      3.660972    0.654468    0.132494
  N     -1.941729    0.398554    0.046606
  C     -2.483272   -0.825223    0.176201
  O     -1.847159   -1.878324    0.213320
  H      3.670206   -1.506181    0.223668
  H      1.494635   -2.667300    0.099573
  H     -0.021542   -1.843753   -0.044529
  H      1.056358    2.551860   -0.247335
  H      4.741739    0.762362    0.273816
  H     -2.541684    1.209135   -0.037306
  H     -0.916938    0.481035   -0.103175
  H     -3.595581   -0.822749    0.260860

 Multiplicity           Mult            ....    1
 Number of Electrons    NEL             ....   74
 Basis Dimension        Dim             ....  180

ORBITAL ENERGIES
----------------

  NO   OCC          E(Eh)            E(eV)
   0   2.0000     -19.112209      -520.0696
   1   2.0000     -14.342666      -390.2838
   2   2.0000     -14.337640      -390.1470
   3   2.0000     -14.329449      -389.9241
   4   2.0000     -14.314944      -389.5294
   5   2.0000     -10.287739      -279.9436
   6   2.0000     -10.273278      -279.5501
   7   2.0000     -10.250444      -278.9288
   8   2.0000     -10.229889      -278.3694
   9   2.0000     -10.194265      -277.4001
  10   2.0000      -1.031805       -28.0768
  11   2.0000      -0.986052       -26.8318
  12   2.0000      -0.923377       -25.1264
  13   2.0000      -0.899044       -24.4642
  14   2.0000      -0.861677       -23.4474
  15   2.0000      -0.773746       -21.0547
  16   2.0000      -0.654549       -17.8112
  17   2.0000      -0.641184       -17.4475
  18   2.0000      -0.611988       -16.6530
  19   2.0000      -0.547711       -14.9040
  20   2.0000      -0.540524       -14.7084
  21   2.0000      -0.536613       -14.6020
  22   2.0000      -0.481624       -13.1057
  23   2.0000      -0.465130       -12.6568
  24   2.0000      -0.462185       -12.5767
  25   2.0000      -0.443697       -12.0736
  26   2.0000      -0.426798       -11.6138
  27   2.0000      -0.410233       -11.1630
  28   2.0000      -0.400271       -10.8919
  29   2.0000      -0.396928       -10.8009
  30   2.0000      -0.346397        -9.4259
  31   2.0000      -0.301069        -8.1925
  32   2.0000      -0.293137        -7.9767
  33   2.0000      -0.267320        -7.2741
  34   2.0000      -0.263886        -7.1807
  35   2.0000      -0.249198        -6.7810
  36   2.0000      -0.231026        -6.2865
  37   0.0000      -0.026234        -0.7139
  38   0.0000      -0.004636        -0.1261
  39   0.0000       0.026925         0.7327
  40   0.0000       0.058377         1.5885
  41   0.0000       0.063627         1.7314

-------
TIMINGS
-------

Dispersion correction           -0.028517147
FINAL SINGLE POINT ENERGY      -489.396809902455

DIPOLE MOMENT
-------------
                                X             Y             Z
Electronic contribution:      1.84353       0.80641      -0.20301
Nuclear contribution   :     -2.14214      -0.81834       0.32744
                        -----------------------------------------
Total Dipole Moment    :     -0.29861      -0.01193       0.12443
                        -----------------------------------------
Magnitude (a.u.)       :      0.32371
Magnitude (Debye)      :      0.82281

                             ****ORCA TERMINATED NORMALLY****
TOTAL RUN TIME: 0 days 0 hours 4 minutes 45 seconds 531 msec
