                         Program Version 4.0.1.2 - RELEASE -
|  1> %pal nprocs 6 end
|  2> %maxcore 1000
|  3> ! b3lyp TIGHTSCF nopop D3BJ
|  4> ! cc-pvdz def2/J RIJCOSX
|  5> ! Opt
|  6>
|  7> %geom
|  8> maxiter 60
|  9> TolE 1e-4
| 10> TolRMSG 2e-3
| 11> TolMaxG 3e-3
| 12> TolRMSD 2e-2
| 13> TolMaxD 3e-2
| 14> end
| 15>
| 16> *xyz 0 1
| 17> C 3.041 -0.7511 -0.0524
| 18> C 1.7057 -0.6123 -0.1074
| 19> N 0.9621 -1.7508 -0.3142
| 20> N 1.0214 0.5702 0.0247
| 21> C 1.6302 1.6885 0.22
| 22> N -1.8779 0.2927 -0.2389
| 23> C -2.4424 -0.8346 0.263
| 24> O -1.792 -1.7648 0.7194
| 25> H 3.499 -1.7269 -0.1836
| 26> H 3.7338 0.0625 0.1033
| 27> H 1.3974 -2.5889 0.0519
| 28> H 0.024 -1.6502 0.0882
| 29> H 2.7185 1.8346 0.3022
| 30> H 1.0238 2.6044 0.319
| 31> H -2.4067 1.0174 -0.6987
| 32> H -0.8565 0.3513 -0.2655
| 33> H -3.5431 -0.8282 0.2093
| 34> *
| 35>
| 36>
| 37>                          ****END OF INPUT****
 Total Charge           Charge          ....    0
 Multiplicity           Mult            ....    1
 Number of Electrons    NEL             ....   62
Dispersion correction           -0.023086770
FINAL SINGLE POINT ENERGY      -397.099853824459
Dispersion correction            ... done
Dispersion correction           -0.022708646
FINAL SINGLE POINT ENERGY      -397.106888890872
Dispersion correction            ... done
Dispersion correction           -0.022646997
FINAL SINGLE POINT ENERGY      -397.108750146258
Dispersion correction            ... done
FINAL SINGLE POINT ENERGY      -397.109326440512
FINAL SINGLE POINT ENERGY      -397.109577303178
FINAL SINGLE POINT ENERGY      -397.109775656880
FINAL SINGLE POINT ENERGY      -397.110046952730
FINAL SINGLE POINT ENERGY      -397.110457575318
FINAL SINGLE POINT ENERGY      -397.110952684124
FINAL SINGLE POINT ENERGY      -397.111682468609
FINAL SINGLE POINT ENERGY      -397.113088468380
FINAL SINGLE POINT ENERGY      -397.113409132291
FINAL SINGLE POINT ENERGY      -397.113547620627
FINAL SINGLE POINT ENERGY      -397.112668571187
FINAL SINGLE POINT ENERGY      -397.112900793160
FINAL SINGLE POINT ENERGY      -397.109160302702
FINAL SINGLE POINT ENERGY      -397.113722677938
Dispersion correction            ... done
Dispersion correction           -0.022627486
FINAL SINGLE POINT ENERGY      -397.113452410797
Dispersion correction            ... done
Dispersion correction           -0.022647639
FINAL SINGLE POINT ENERGY      -397.114035557983
Dispersion correction            ... done
                    ***********************HURRAY********************

CARTESIAN COORDINATES (ANGSTROEM)
---------------------------------
  C      3.041098   -0.748483    0.537334
  C      1.800825   -0.668935    0.009138
  N      1.097881   -1.688625   -0.609775
  N      1.057509    0.545595    0.043068
  C      1.588515    1.616215   -0.393923
  N     -1.879113    0.374498    0.357425
  C     -2.454364   -0.821758    0.122935
  O     -1.844384   -1.857102   -0.129842
  H      3.568696   -1.702181    0.585940
  H      3.518367    0.132435    0.960212
  H      1.509288   -2.606418   -0.460402
  H      0.087730   -1.705303   -0.413808
  H      2.596477    1.648424   -0.832967
  H      1.019200    2.553830   -0.327221
  H     -2.450170    1.196323    0.504498
  H     -0.851134    0.454374    0.297178
  H     -3.568120   -0.809090    0.190511

 Multiplicity           Mult            ....    1
 Number of Electrons    NEL             ....   62
 Basis Dimension        Dim             ....  157

ORBITAL ENERGIES
----------------

  NO   OCC          E(Eh)            E(eV)
   0   2.0000     -19.107496      -519.9414
   1   2.0000     -14.352612      -390.5544
   2   2.0000     -14.342389      -390.2762
   3   2.0000     -14.311005      -389.4222
   4   2.0000     -10.284167      -279.8464
   5   2.0000     -10.247128      -278.8385
   6   2.0000     -10.241696      -278.6907
   7   2.0000     -10.154369      -276.3144
   8   2.0000      -1.027905       -27.9707
   9   2.0000      -0.957267       -26.0486
  10   2.0000      -0.897269       -24.4159
  11   2.0000      -0.876004       -23.8373
  12   2.0000      -0.722143       -19.6505
  13   2.0000      -0.651876       -17.7384
  14   2.0000      -0.612017       -16.6538
  15   2.0000      -0.549882       -14.9630
  16   2.0000      -0.544192       -14.8082
  17   2.0000      -0.510813       -13.8999
  18   2.0000      -0.486200       -13.2302
  19   2.0000      -0.470784       -12.8107
  20   2.0000      -0.451771       -12.2933
  21   2.0000      -0.419183       -11.4065
  22   2.0000      -0.407279       -11.0826
  23   2.0000      -0.396870       -10.7994
  24   2.0000      -0.387243       -10.5374
  25   2.0000      -0.360782        -9.8174
  26   2.0000      -0.316207        -8.6044
  27   2.0000      -0.276928        -7.5356
  28   2.0000      -0.264289        -7.1917
  29   2.0000      -0.254599        -6.9280
  30   2.0000      -0.196133        -5.3371
  31   0.0000      -0.038583        -1.0499
  32   0.0000       0.030374         0.8265
  33   0.0000       0.054653         1.4872
  34   0.0000       0.063917         1.7393
  35   0.0000       0.080629         2.1940

-------
TIMINGS
-------

Dispersion correction           -0.022641810
FINAL SINGLE POINT ENERGY      -397.114090592846

DIPOLE MOMENT
-------------
                                X             Y             Z
Electronic contribution:     -3.27759      -1.42263      -0.40814
Nuclear contribution   :      3.03788       2.77478       0.55745
                        -----------------------------------------
Total Dipole Moment    :     -0.23971       1.35215       0.14931
                        -----------------------------------------
Magnitude (a.u.)       :      1.38133
Magnitude (Debye)      :      3.51106

                             ****ORCA TERMINATED NORMALLY****
TOTAL RUN TIME: 0 days 0 hours 8 minutes 19 seconds 682 msec
