                         Program Version 4.0.1.2 - RELEASE -
|  1> %pal nprocs 6 end
|  2> %maxcore 1000
|  3> ! b3lyp TIGHTSCF nopop D3BJ
|  4> ! cc-pvdz def2/J RIJCOSX
|  5> ! Opt
|  6>
|  7> %geom
|  8> maxiter 60
|  9> TolE 1e-4
| 10> TolRMSG 2e-3
| 11> TolMaxG 3e-3
| 12> TolRMSD 2e-2
| 13> TolMaxD 3e-2
| 14> end
| 15>
| 16> *xyz 0 1
| 17> C 3.0983 -0.7092 -0.0055
| 18> C 1.7562 -0.6816 -0.0062
| 19> N 1.0926 -1.8863 -0.014
| 20> N 0.9782 0.4436 0.0012
| 21> C 1.4846 1.6264 0.0086
| 22> H 3.6287 -1.656 -0.03
| 23> H 3.7247 0.1705 -0.0032
| 24> H 1.5557 -2.5941 0.5443
| 25> H 0.1359 -1.7232 0.2894
| 26> H 2.5567 1.8759 0.009
| 27> H 0.8 2.4902 0.0136
| 28> *
| 29>
| 30>
| 31>                          ****END OF INPUT****
 Total Charge           Charge          ....    0
 Multiplicity           Mult            ....    1
 Number of Electrons    NEL             ....   38
Dispersion correction           -0.013497483
FINAL SINGLE POINT ENERGY      -227.260407800282
Dispersion correction            ... done
Dispersion correction           -0.013339647
FINAL SINGLE POINT ENERGY      -227.266131834984
Dispersion correction            ... done
Dispersion correction           -0.013333471
FINAL SINGLE POINT ENERGY      -227.267261135044
Dispersion correction            ... done
FINAL SINGLE POINT ENERGY      -227.267632808222
FINAL SINGLE POINT ENERGY      -227.267781180799
FINAL SINGLE POINT ENERGY      -227.267997126588
FINAL SINGLE POINT ENERGY      -227.268529794465
FINAL SINGLE POINT ENERGY      -227.268873193833
FINAL SINGLE POINT ENERGY      -227.268379106050
FINAL SINGLE POINT ENERGY      -227.265751429066
FINAL SINGLE POINT ENERGY      -227.269353213205
FINAL SINGLE POINT ENERGY      -227.269739586548
FINAL SINGLE POINT ENERGY      -227.270376126774
FINAL SINGLE POINT ENERGY      -227.270992070514
FINAL SINGLE POINT ENERGY      -227.271322185732
FINAL SINGLE POINT ENERGY      -227.271589181919
FINAL SINGLE POINT ENERGY      -227.271775345688
Dispersion correction            ... done
Dispersion correction           -0.013410173
FINAL SINGLE POINT ENERGY      -227.271861817010
Dispersion correction            ... done
Dispersion correction           -0.013417558
FINAL SINGLE POINT ENERGY      -227.271917132673
Dispersion correction            ... done
                    ***********************HURRAY********************

CARTESIAN COORDINATES (ANGSTROEM)
---------------------------------
  C      3.220807   -0.717758    0.199176
  C      1.872145   -0.665403    0.182264
  N      1.020720   -1.726044   -0.127761
  N      1.142937    0.500398    0.517306
  C      1.409597    1.583515   -0.094673
  H      3.749117   -1.658012    0.031180
  H      3.801948    0.171594    0.436421
  H      1.433804   -2.643337    0.019890
  H      0.126524   -1.642307    0.350984
  H      2.158687    1.655332   -0.903995
  H      0.875315    2.498223    0.196409

 Multiplicity           Mult            ....    1
 Number of Electrons    NEL             ....   38
 Basis Dimension        Dim             ....  100

ORBITAL ENERGIES
----------------

  NO   OCC          E(Eh)            E(eV)
   0   2.0000     -14.336865      -390.1259
   1   2.0000     -14.328432      -389.8965
   2   2.0000     -10.241033      -278.6727
   3   2.0000     -10.234923      -278.5064
   4   2.0000     -10.155612      -276.3483
   5   2.0000      -0.952492       -25.9186
   6   2.0000      -0.880577       -23.9617
   7   2.0000      -0.722953       -19.6725
   8   2.0000      -0.645001       -17.5514
   9   2.0000      -0.545073       -14.8322
  10   2.0000      -0.511220       -13.9110
  11   2.0000      -0.484744       -13.1905
  12   2.0000      -0.446609       -12.1528
  13   2.0000      -0.423397       -11.5212
  14   2.0000      -0.387524       -10.5451
  15   2.0000      -0.352365        -9.5884
  16   2.0000      -0.313708        -8.5364
  17   2.0000      -0.264230        -7.1901
  18   2.0000      -0.201481        -5.4826
  19   0.0000      -0.028108        -0.7649
  20   0.0000       0.058405         1.5893
  21   0.0000       0.076530         2.0825
  22   0.0000       0.089906         2.4465
  23   0.0000       0.106511         2.8983

-------
TIMINGS
-------

Dispersion correction           -0.013419809
FINAL SINGLE POINT ENERGY      -227.271926401517

DIPOLE MOMENT
-------------
                                X             Y             Z
Electronic contribution:     -1.83937       0.12619       0.57320
Nuclear contribution   :      1.69846      -0.20619      -0.60185
                        -----------------------------------------
Total Dipole Moment    :     -0.14091      -0.08000      -0.02865
                        -----------------------------------------
Magnitude (a.u.)       :      0.16454
Magnitude (Debye)      :      0.41824

                             ****ORCA TERMINATED NORMALLY****
TOTAL RUN TIME: 0 days 0 hours 3 minutes 5 seconds 416 msec
