                         Program Version 4.0.1.2 - RELEASE -
|  1> %pal nprocs 6 end
|  2> %maxcore 1000
|  3> ! b3lyp TIGHTSCF nopop D3BJ
|  4> ! cc-pvdz def2/J RIJCOSX
|  5> ! Opt
|  6>
|  7> %geom
|  8> maxiter 60
|  9> TolE 1e-4
| 10> TolRMSG 2e-3
| 11> TolMaxG 3e-3
| 12> TolRMSD 2e-2
| 13> TolMaxD 3e-2
| 14> end
| 15>
| 16> *xyz 0 1
| 17> C 3.1127 -0.5801 0.0401
| 18> C 1.6326 -0.5577 -0.1631
| 19> N 0.9729 -1.7247 -0.3919
| 20> N 0.9182 0.5242 -0.136
| 21> C 3.8811 0.4921 0.2724
| 22> N -1.8699 0.4401 0.0043
| 23> C -2.4876 -0.7656 0.0311
| 24> O -1.8316 -1.8036 0.0653
| 25> C -3.9856 -0.7812 0.0153
| 26> C -4.5939 -2.1559 0.047
| 27> C -4.7527 0.3226 -0.0232
| 28> H 3.5723 -1.5615 -0.0306
| 29> H 1.3318 -2.5558 0.0607
| 30> H -0.0438 -1.66 -0.2741
| 31> H 1.5157 1.3377 0.027
| 32> H 4.9544 0.372 0.3982
| 33> H 3.4982 1.5024 0.3444
| 34> H -2.3282 1.3248 -0.1229
| 35> H -0.8444 0.45 -0.0478
| 36> H -4.2744 -2.7334 -0.8265
| 37> H -5.6883 -2.1165 0.0315
| 38> H -4.2952 -2.6963 0.9516
| 39> H -4.3609 1.3318 -0.0375
| 40> H -5.8366 0.2411 -0.0316
| 41> *
| 42>
| 43>
| 44>                          ****END OF INPUT****
 Total Charge           Charge          ....    0
 Multiplicity           Mult            ....    1
 Number of Electrons    NEL             ....   84
Dispersion correction           -0.036025183
FINAL SINGLE POINT ENERGY      -513.790047446519
Dispersion correction            ... done
Dispersion correction           -0.035686015
FINAL SINGLE POINT ENERGY      -513.794560668393
Dispersion correction            ... done
Dispersion correction           -0.035669289
FINAL SINGLE POINT ENERGY      -513.795727161948
Dispersion correction            ... done
FINAL SINGLE POINT ENERGY      -513.796162321553
FINAL SINGLE POINT ENERGY      -513.796685116735
FINAL SINGLE POINT ENERGY      -513.797290790285
FINAL SINGLE POINT ENERGY      -513.797472253827
FINAL SINGLE POINT ENERGY      -513.797867833814
FINAL SINGLE POINT ENERGY      -513.797996826610
FINAL SINGLE POINT ENERGY      -513.798057420238
Dispersion correction            ... done
Dispersion correction           -0.035781029
FINAL SINGLE POINT ENERGY      -513.798094258815
Dispersion correction            ... done
Dispersion correction           -0.035764884
FINAL SINGLE POINT ENERGY      -513.798111778297
Dispersion correction            ... done
                    ***********************HURRAY********************

CARTESIAN COORDINATES (ANGSTROEM)
---------------------------------
  C      3.099826   -0.622959    0.012958
  C      1.611616   -0.550604   -0.071966
  N      0.980307   -1.754335    0.045028
  N      0.936511    0.536871   -0.283422
  C      3.893860    0.415869    0.287102
  N     -1.948717    0.541915   -0.236016
  C     -2.508833   -0.659549    0.009832
  O     -1.844019   -1.681815    0.246058
  C     -4.015278   -0.759428    0.022345
  C     -4.546270   -2.148418   -0.197998
  C     -4.792994    0.297886    0.295738
  H      3.540381   -1.612716   -0.150315
  H      1.476077   -2.487525    0.537078
  H     -0.047287   -1.742176    0.150972
  H      1.567975    1.317258   -0.472345
  H      4.979707    0.303965    0.334194
  H      3.485238    1.411864    0.482751
  H     -2.520186    1.282997   -0.618031
  H     -0.909356    0.616142   -0.270779
  H     -4.311340   -2.500643   -1.217645
  H     -5.634006   -2.195388   -0.043024
  H     -4.042452   -2.846798    0.487113
  H     -4.372414    1.281936    0.513247
  H     -5.881547    0.202154    0.340827

 Multiplicity           Mult            ....    1
 Number of Electrons    NEL             ....   84
 Basis Dimension        Dim             ....  219

ORBITAL ENERGIES
----------------

  NO   OCC          E(Eh)            E(eV)
   0   2.0000     -19.096271      -519.6360
   1   2.0000     -14.322149      -389.7255
   2   2.0000     -14.318587      -389.6286
   3   2.0000     -14.284749      -388.7078
   4   2.0000     -10.275483      -279.6101
   5   2.0000     -10.253712      -279.0177
   6   2.0000     -10.202844      -277.6335
   7   2.0000     -10.201077      -277.5854
   8   2.0000     -10.197622      -277.4914
   9   2.0000     -10.186709      -277.1945
  10   2.0000     -10.175876      -276.8997
  11   2.0000      -1.018286       -27.7090
  12   2.0000      -0.932891       -25.3853
  13   2.0000      -0.883202       -24.0331
  14   2.0000      -0.835411       -22.7327
  15   2.0000      -0.793427       -21.5902
  16   2.0000      -0.775022       -21.0894
  17   2.0000      -0.682621       -18.5751
  18   2.0000      -0.632638       -17.2150
  19   2.0000      -0.614347       -16.7172
  20   2.0000      -0.556487       -15.1428
  21   2.0000      -0.540454       -14.7065
  22   2.0000      -0.514059       -13.9883
  23   2.0000      -0.505952       -13.7676
  24   2.0000      -0.487852       -13.2751
  25   2.0000      -0.463275       -12.6064
  26   2.0000      -0.444203       -12.0874
  27   2.0000      -0.434828       -11.8323
  28   2.0000      -0.420953       -11.4547
  29   2.0000      -0.412799       -11.2328
  30   2.0000      -0.398977       -10.8567
  31   2.0000      -0.379586       -10.3291
  32   2.0000      -0.376803       -10.2533
  33   2.0000      -0.371652       -10.1132
  34   2.0000      -0.363615        -9.8945
  35   2.0000      -0.358814        -9.7638
  36   2.0000      -0.277684        -7.5562
  37   2.0000      -0.269401        -7.3308
  38   2.0000      -0.259148        -7.0518
  39   2.0000      -0.250914        -6.8277
  40   2.0000      -0.241792        -6.5795
  41   2.0000      -0.224452        -6.1076
  42   0.0000      -0.031649        -0.8612
  43   0.0000      -0.020590        -0.5603
  44   0.0000       0.063993         1.7413
  45   0.0000       0.071241         1.9386
  46   0.0000       0.078211         2.1282

-------
TIMINGS
-------

Dispersion correction           -0.035752528
FINAL SINGLE POINT ENERGY      -513.798130468770

DIPOLE MOMENT
-------------
                                X             Y             Z
Electronic contribution:      2.12083      -0.20397       0.03487
Nuclear contribution   :     -1.67943       0.66310      -0.06079
                        -----------------------------------------
Total Dipole Moment    :      0.44140       0.45912      -0.02592
                        -----------------------------------------
Magnitude (a.u.)       :      0.63742
Magnitude (Debye)      :      1.62019

                             ****ORCA TERMINATED NORMALLY****
TOTAL RUN TIME: 0 days 0 hours 8 minutes 23 seconds 776 msec
