                         Program Version 4.0.1.2 - RELEASE -
|  1> %pal nprocs 3 end
|  2> %maxcore 1000
|  3> ! b3lyp TIGHTSCF D3BJ
|  4> ! cc-pvdz def2/J RIJCOSX
|  5> ! Opt
|  6>
|  7> %geom
|  8> maxiter 60
|  9> TolE 1e-4
| 10> TolRMSG 2e-3
| 11> TolMaxG 3e-3
| 12> TolRMSD 2e-2
| 13> TolMaxD 3e-2
| 14> end
| 15>
| 16> *xyz 0 1
| 17> N -3.7788 1.5332 0.0047
| 18> C -2.4305 1.7571 0.0004
| 19> O -1.9482 2.8837 0.0019
| 20> C -3.9165 -0.8812 -0.0018
| 21> C -4.7295 -2.1372 -0.0023
| 22> C -4.4579 0.3432 0.0037
| 23> H -4.3233 2.3898 0.0091
| 24> H -4.497 -2.7303 -0.8921
| 25> H -5.8055 -1.9363 0.0023
| 26> H -4.4903 -2.7353 0.8824
| 27> H -5.5408 0.4585 0.0081
| 28> H -1.8047 0.8536 -0.0045
| 29> H -2.842 -1.0314 -0.0062
| 30> *
| 31>
| 32>
| 33>                          ****END OF INPUT****
 Total Charge           Charge          ....    0
 Multiplicity           Mult            ....    1
 Number of Electrons    NEL             ....   46
Dispersion correction           -0.015831960
FINAL SINGLE POINT ENERGY      -286.461873025915
Dispersion correction            ... done
Dispersion correction           -0.015707798
FINAL SINGLE POINT ENERGY      -286.463600864441
Dispersion correction            ... done
Dispersion correction           -0.015695912
FINAL SINGLE POINT ENERGY      -286.463814187465
Dispersion correction            ... done
                    ***********************HURRAY********************

CARTESIAN COORDINATES (ANGSTROEM)
---------------------------------
  N     -3.772607    1.565567    0.003314
  C     -2.420670    1.797381    0.000994
  O     -1.935389    2.911376    0.003532
  C     -3.907954   -0.899175   -0.002727
  C     -4.735824   -2.151414   -0.001955
  C     -4.443171    0.330354    0.002786
  H     -4.331095    2.414083    0.007283
  H     -4.525943   -2.774200   -0.890610
  H     -5.814836   -1.923311    0.005191
  H     -4.515450   -2.779846    0.880134
  H     -5.531356    0.445337    0.007894
  H     -1.809692    0.867779   -0.001734
  H     -2.821013   -1.036530   -0.008401

 Multiplicity           Mult            ....    1
 Number of Electrons    NEL             ....   46
 Basis Dimension        Dim             ....  119

ORBITAL ENERGIES
----------------

  NO   OCC          E(Eh)            E(eV)
   0   2.0000     -19.115185      -520.1506
   1   2.0000     -14.371574      -391.0704
   2   2.0000     -10.288926      -279.9759
   3   2.0000     -10.232723      -278.4465
   4   2.0000     -10.192551      -277.3534
   5   2.0000     -10.190568      -277.2995
   6   2.0000      -1.041191       -28.3323
   7   2.0000      -0.939463       -25.5641
   8   2.0000      -0.787932       -21.4407
   9   2.0000      -0.695396       -18.9227
  10   2.0000      -0.644595       -17.5403
  11   2.0000      -0.569138       -15.4870
  12   2.0000      -0.522158       -14.2086
  13   2.0000      -0.490746       -13.3539
  14   2.0000      -0.424648       -11.5553
  15   2.0000      -0.423886       -11.5345
  16   2.0000      -0.418149       -11.3784
  17   2.0000      -0.408549       -11.1172
  18   2.0000      -0.391884       -10.6637
  19   2.0000      -0.366554        -9.9744
  20   2.0000      -0.326986        -8.8977
  21   2.0000      -0.258161        -7.0249
  22   2.0000      -0.220958        -6.0126
  23   0.0000      -0.012109        -0.3295
  24   0.0000       0.047008         1.2792
  25   0.0000       0.061889         1.6841
  26   0.0000       0.068839         1.8732
  27   0.0000       0.087323         2.3762

MULLIKEN ATOMIC CHARGES
-----------------------
   0 N :   -0.080466
   1 C :    0.178869
   2 O :   -0.248010
   3 C :   -0.123302
   4 C :    0.024902
   5 C :    0.082898
   6 H :    0.085845
   7 H :    0.034443
   8 H :    0.016566
   9 H :    0.034430
  10 H :    0.003106
  11 H :    0.003550
  12 H :   -0.012833
Sum of atomic charges:   -0.0000000

LOEWDIN ATOMIC CHARGES
----------------------
   0 N :    0.135733
   1 C :   -0.092244
   2 O :   -0.060329
   3 C :   -0.079113
   4 C :   -0.064499
   5 C :   -0.052500
   6 H :    0.066662
   7 H :    0.035476
   8 H :    0.031012
   9 H :    0.035491
  10 H :    0.027499
  11 H :   -0.002788
  12 H :    0.019599

  Mayer bond orders larger than 0.1
B(  0-N ,  1-C ) :   1.2109 B(  0-N ,  5-C ) :   1.1186 B(  0-N ,  6-H ) :   0.9356
B(  1-C ,  2-O ) :   2.1366 B(  1-C , 11-H ) :   0.9141 B(  3-C ,  4-C ) :   1.1210
B(  3-C ,  5-C ) :   1.8743 B(  3-C , 12-H ) :   0.9419 B(  4-C ,  7-H ) :   0.9516
B(  4-C ,  8-H ) :   0.9617 B(  4-C ,  9-H ) :   0.9515 B(  5-C , 10-H ) :   0.9354

Dispersion correction           -0.015706608
FINAL SINGLE POINT ENERGY      -286.463866121226

DIPOLE MOMENT
-------------
                                X             Y             Z
Electronic contribution:      3.47180       7.65626       0.00747
Nuclear contribution   :     -4.38998      -8.51041      -0.00727
                        -----------------------------------------
Total Dipole Moment    :     -0.91818      -0.85415       0.00021
                        -----------------------------------------
Magnitude (a.u.)       :      1.25404
Magnitude (Debye)      :      3.18752

                             ****ORCA TERMINATED NORMALLY****
TOTAL RUN TIME: 0 days 0 hours 1 minutes 48 seconds 334 msec
