                         Program Version 4.0.1.2 - RELEASE -
|  1> %pal nprocs 3 end
|  2> %maxcore 1000
|  3> ! b3lyp TIGHTSCF D3BJ
|  4> ! cc-pvdz def2/J RIJCOSX
|  5> ! Opt
|  6>
|  7> %geom
|  8> maxiter 60
|  9> TolE 1e-4
| 10> TolRMSG 2e-3
| 11> TolMaxG 3e-3
| 12> TolRMSD 2e-2
| 13> TolMaxD 3e-2
| 14> end
| 15>
| 16> *xyz 0 1
| 17> N -3.7839 1.5411 0.0009
| 18> C -2.4277 1.7124 0.0028
| 19> O -1.9015 2.819 0.0055
| 20> C -4.0099 -0.8628 -0.0038
| 21> C -4.505 0.3773 -0.0021
| 22> H -4.2957 2.4178 0.0019
| 23> H -5.5843 0.5215 -0.0031
| 24> H -1.8386 0.7842 0.0018
| 25> H -2.951 -1.0897 -0.003
| 26> H -4.685 -1.7142 -0.0062
| 27> *
| 28>
| 29>
| 30>                          ****END OF INPUT****
 Total Charge           Charge          ....    0
 Multiplicity           Mult            ....    1
 Number of Electrons    NEL             ....   38
Dispersion correction           -0.011478788
FINAL SINGLE POINT ENERGY      -247.169000830468
Dispersion correction            ... done
Dispersion correction           -0.011393597
FINAL SINGLE POINT ENERGY      -247.170281393810
Dispersion correction            ... done
Dispersion correction           -0.011383277
FINAL SINGLE POINT ENERGY      -247.170458936988
Dispersion correction            ... done
                    ***********************HURRAY********************

CARTESIAN COORDINATES (ANGSTROEM)
---------------------------------
  N     -3.782377    1.567240    0.000428
  C     -2.418907    1.741336    0.002639
  O     -1.888669    2.832996    0.006575
  C     -4.010097   -0.888607   -0.003833
  C     -4.495648    0.360981   -0.002222
  H     -4.307226    2.437077    0.001510
  H     -5.577309    0.521863   -0.002809
  H     -1.849484    0.786510    0.001513
  H     -2.944806   -1.126982   -0.003443
  H     -4.708077   -1.725814   -0.005656

 Multiplicity           Mult            ....    1
 Number of Electrons    NEL             ....   38
 Basis Dimension        Dim             ....   95

ORBITAL ENERGIES
----------------

  NO   OCC          E(Eh)            E(eV)
   0   2.0000     -19.120699      -520.3007
   1   2.0000     -14.376347      -391.2003
   2   2.0000     -10.293718      -280.1063
   3   2.0000     -10.242133      -278.7026
   4   2.0000     -10.186107      -277.1781
   5   2.0000      -1.046769       -28.4840
   6   2.0000      -0.944859       -25.7109
   7   2.0000      -0.762473       -20.7480
   8   2.0000      -0.660031       -17.9604
   9   2.0000      -0.592682       -16.1277
  10   2.0000      -0.515878       -14.0378
  11   2.0000      -0.497380       -13.5344
  12   2.0000      -0.432827       -11.7778
  13   2.0000      -0.425545       -11.5797
  14   2.0000      -0.419536       -11.4161
  15   2.0000      -0.389271       -10.5926
  16   2.0000      -0.336558        -9.1582
  17   2.0000      -0.262908        -7.1541
  18   2.0000      -0.232762        -6.3338
  19   0.0000      -0.018542        -0.5046
  20   0.0000       0.044295         1.2053
  21   0.0000       0.056770         1.5448
  22   0.0000       0.070354         1.9144
  23   0.0000       0.111059         3.0221

MULLIKEN ATOMIC CHARGES
-----------------------
   0 N :   -0.078471
   1 C :    0.185802
   2 O :   -0.242469
   3 C :   -0.033320
   4 C :    0.020056
   5 H :    0.087822
   6 H :    0.016071
   7 H :    0.004069
   8 H :    0.015124
   9 H :    0.025316
Sum of atomic charges:   -0.0000000

LOEWDIN ATOMIC CHARGES
----------------------
   0 N :    0.136056
   1 C :   -0.087179
   2 O :   -0.053719
   3 C :   -0.104314
   4 C :   -0.041795
   5 H :    0.067699
   6 H :    0.032969
   7 H :   -0.000921
   8 H :    0.019308
   9 H :    0.031895

  Mayer bond orders larger than 0.1
B(  0-N ,  1-C ) :   1.1973 B(  0-N ,  4-C ) :   1.1394 B(  0-N ,  5-H ) :   0.9368
B(  1-C ,  2-O ) :   2.1434 B(  1-C ,  7-H ) :   0.9160 B(  3-C ,  4-C ) :   1.9607
B(  3-C ,  8-H ) :   0.9450 B(  3-C ,  9-H ) :   0.9413 B(  4-C ,  6-H ) :   0.9438

Dispersion correction           -0.011389732
FINAL SINGLE POINT ENERGY      -247.170502470817

DIPOLE MOMENT
-------------
                                X             Y             Z
Electronic contribution:      1.80511       3.98351       0.00931
Nuclear contribution   :     -2.73038      -4.59708      -0.01229
                        -----------------------------------------
Total Dipole Moment    :     -0.92527      -0.61357      -0.00299
                        -----------------------------------------
Magnitude (a.u.)       :      1.11022
Magnitude (Debye)      :      2.82196

                             ****ORCA TERMINATED NORMALLY****
TOTAL RUN TIME: 0 days 0 hours 3 minutes 22 seconds 745 msec
