                         Program Version 4.0.1.2 - RELEASE -
|  1> %pal nprocs 6 end
|  2> %maxcore 1000
|  3> ! b3lyp TIGHTSCF nopop D3BJ
|  4> ! cc-pvdz def2/J RIJCOSX
|  5> ! Opt
|  6>
|  7> %geom
|  8> maxiter 60
|  9> TolE 1e-4
| 10> TolRMSG 2e-3
| 11> TolMaxG 3e-3
| 12> TolRMSD 2e-2
| 13> TolMaxD 3e-2
| 14> end
| 15>
| 16> *xyz 0 1
| 17> C 5.145 -1.3277 -0.0023
| 18> N 3.8654 -1.4646 -0.0693
| 19> C 3.1145 -0.3043 -0.0862
| 20> C 1.7588 -0.3254 -0.1552
| 21> N 1.1504 -1.5658 -0.2108
| 22> N 0.9285 0.7765 -0.1753
| 23> C 1.3785 1.9811 -0.1292
| 24> N -1.9063 0.1352 0.0217
| 25> C -2.3699 -1.0843 0.4071
| 26> O -1.6425 -2.0103 0.738
| 27> H 5.6655 -0.3536 0.04
| 28> H 5.782 -2.2254 0.0085
| 29> H 3.6515 0.634 -0.039
| 30> H 1.7925 -2.2964 0.0925
| 31> H 0.2585 -1.5977 0.2844
| 32> H 2.4362 2.279 -0.0641
| 33> H 0.6535 2.8074 -0.1537
| 34> H -2.5044 0.8364 -0.3933
| 35> H -0.8942 0.2488 -0.0986
| 36> H -3.4699 -1.1547 0.3841
| 37> *
| 38>
| 39>
| 40>                          ****END OF INPUT****
 Total Charge           Charge          ....    0
 Multiplicity           Mult            ....    1
 Number of Electrons    NEL             ....   76
Dispersion correction           -0.029053817
FINAL SINGLE POINT ENERGY      -490.506911538875
Dispersion correction            ... done
Dispersion correction           -0.028691816
FINAL SINGLE POINT ENERGY      -490.512291197810
Dispersion correction            ... done
Dispersion correction           -0.028622541
FINAL SINGLE POINT ENERGY      -490.513937531581
Dispersion correction            ... done
FINAL SINGLE POINT ENERGY      -490.514443982686
FINAL SINGLE POINT ENERGY      -490.514790690652
FINAL SINGLE POINT ENERGY      -490.515232164695
FINAL SINGLE POINT ENERGY      -490.515580853212
FINAL SINGLE POINT ENERGY      -490.516415615754
FINAL SINGLE POINT ENERGY      -490.517091027690
FINAL SINGLE POINT ENERGY      -490.517867769333
FINAL SINGLE POINT ENERGY      -490.518637988487
Dispersion correction            ... done
Dispersion correction           -0.028605051
FINAL SINGLE POINT ENERGY      -490.519208644468
Dispersion correction            ... done
Dispersion correction           -0.028635408
FINAL SINGLE POINT ENERGY      -490.519481387535
Dispersion correction            ... done
                    ***********************HURRAY********************

CARTESIAN COORDINATES (ANGSTROEM)
---------------------------------
  C      5.238567   -1.313759    0.258072
  N      3.974941   -1.397462    0.052837
  C      3.182542   -0.268906    0.096622
  C      1.839033   -0.403930   -0.162414
  N      1.242985   -1.568407   -0.543918
  N      0.961089    0.689782   -0.006695
  C      1.268268    1.816302   -0.526702
  N     -1.967986    0.288767    0.464239
  C     -2.343496   -1.002716    0.357101
  O     -1.586972   -1.953806    0.189916
  H      5.755231   -0.355106    0.461560
  H      5.847942   -2.225329    0.235880
  H      3.588272    0.703854    0.407146
  H      1.852939   -2.375111   -0.446636
  H      0.256281   -1.701904   -0.292375
  H      2.165867    1.968945   -1.150967
  H      0.612367    2.677923   -0.342702
  H     -2.671939    1.014399    0.531678
  H     -0.974799    0.541770    0.370608
  H     -3.447534   -1.147106    0.446049

 Multiplicity           Mult            ....    1
 Number of Electrons    NEL             ....   76
 Basis Dimension        Dim             ....  190

ORBITAL ENERGIES
----------------

  NO   OCC          E(Eh)            E(eV)
   0   2.0000     -19.112392      -520.0746
   1   2.0000     -14.358615      -390.7178
   2   2.0000     -14.348889      -390.4531
   3   2.0000     -14.320226      -389.6732
   4   2.0000     -14.315569      -389.5464
   5   2.0000     -10.289290      -279.9858
   6   2.0000     -10.252648      -278.9887
   7   2.0000     -10.248704      -278.8814
   8   2.0000     -10.203277      -277.6453
   9   2.0000     -10.184280      -277.1283
  10   2.0000      -1.032863       -28.1056
  11   2.0000      -0.966601       -26.3026
  12   2.0000      -0.911553       -24.8046
  13   2.0000      -0.903074       -24.5739
  14   2.0000      -0.879162       -23.9232
  15   2.0000      -0.725863       -19.7517
  16   2.0000      -0.668962       -18.2034
  17   2.0000      -0.618561       -16.8319
  18   2.0000      -0.586029       -15.9467
  19   2.0000      -0.548443       -14.9239
  20   2.0000      -0.543032       -14.7767
  21   2.0000      -0.527105       -14.3433
  22   2.0000      -0.495868       -13.4932
  23   2.0000      -0.476988       -12.9795
  24   2.0000      -0.467000       -12.7077
  25   2.0000      -0.442416       -12.0387
  26   2.0000      -0.438989       -11.9455
  27   2.0000      -0.411508       -11.1977
  28   2.0000      -0.401652       -10.9295
  29   2.0000      -0.393611       -10.7107
  30   2.0000      -0.378201       -10.2914
  31   2.0000      -0.344278        -9.3683
  32   2.0000      -0.317459        -8.6385
  33   2.0000      -0.278630        -7.5819
  34   2.0000      -0.269852        -7.3430
  35   2.0000      -0.258651        -7.0383
  36   2.0000      -0.246193        -6.6993
  37   2.0000      -0.183307        -4.9880
  38   0.0000      -0.052619        -1.4318
  39   0.0000       0.004140         0.1126
  40   0.0000       0.025829         0.7028
  41   0.0000       0.052792         1.4365
  42   0.0000       0.073860         2.0098

-------
TIMINGS
-------

Dispersion correction           -0.028635268
FINAL SINGLE POINT ENERGY      -490.519525733641

DIPOLE MOMENT
-------------
                                X             Y             Z
Electronic contribution:     -2.45960      -2.32169       0.01461
Nuclear contribution   :      1.77979       4.02658       0.00631
                        -----------------------------------------
Total Dipole Moment    :     -0.67980       1.70489       0.02092
                        -----------------------------------------
Magnitude (a.u.)       :      1.83555
Magnitude (Debye)      :      4.66559

                             ****ORCA TERMINATED NORMALLY****
TOTAL RUN TIME: 0 days 0 hours 7 minutes 38 seconds 830 msec
