                         Program Version 4.0.1.2 - RELEASE -
|  1> %pal nprocs 6 end
|  2> %maxcore 1000
|  3> ! b3lyp TIGHTSCF nopop D3BJ
|  4> ! cc-pvdz def2/J RIJCOSX
|  5> ! Opt
|  6>
|  7> %geom
|  8> maxiter 60
|  9> TolE 1e-4
| 10> TolRMSG 2e-3
| 11> TolMaxG 3e-3
| 12> TolRMSD 2e-2
| 13> TolMaxD 3e-2
| 14> end
| 15>
| 16> *xyz 0 1
| 17> N -3.8125 1.5711 -0.0038
| 18> C -2.4644 1.6445 -0.0017
| 19> O -1.8472 2.6955 -0.0044
| 20> N -1.8717 0.4315 0.0037
| 21> H -4.2071 0.8305 0.5582
| 22> H -4.2543 2.4728 0.1291
| 23> H -2.3275 -0.2761 -0.5546
| 24> H -0.8693 0.4845 -0.1317
| 25> *
| 26>
| 27>
| 28>                          ****END OF INPUT****
 Total Charge           Charge          ....    0
 Multiplicity           Mult            ....    1
 Number of Electrons    NEL             ....   32
Dispersion correction           -0.007522209
FINAL SINGLE POINT ENERGY      -225.166453322440
Dispersion correction            ... done
Dispersion correction           -0.007445907
FINAL SINGLE POINT ENERGY      -225.169713407228
Dispersion correction            ... done
Dispersion correction           -0.007438810
FINAL SINGLE POINT ENERGY      -225.170012487661
Dispersion correction            ... done
Dispersion correction           -0.007440388
FINAL SINGLE POINT ENERGY      -225.170125179121
Dispersion correction            ... done
                    ***********************HURRAY********************

CARTESIAN COORDINATES (ANGSTROEM)
---------------------------------
  N     -3.841294    1.597113   -0.024154
  C     -2.450068    1.668155   -0.000897
  O     -1.835640    2.718990   -0.006257
  N     -1.834284    0.417223    0.028134
  H     -4.261077    0.813402    0.467289
  H     -4.268342    2.489937    0.204428
  H     -2.315519   -0.328968   -0.466140
  H     -0.847776    0.478447   -0.207602

 Multiplicity           Mult            ....    1
 Number of Electrons    NEL             ....   32
 Basis Dimension        Dim             ....   76

ORBITAL ENERGIES
----------------

  NO   OCC          E(Eh)            E(eV)
   0   2.0000     -19.090894      -519.4896
   1   2.0000     -14.339125      -390.1874
   2   2.0000     -14.338847      -390.1799
   3   2.0000     -10.300840      -280.3001
   4   2.0000      -1.034395       -28.1473
   5   2.0000      -0.910273       -24.7698
   6   2.0000      -0.869464       -23.6593
   7   2.0000      -0.596602       -16.2344
   8   2.0000      -0.533283       -14.5114
   9   2.0000      -0.521221       -14.1832
  10   2.0000      -0.451117       -12.2755
  11   2.0000      -0.413366       -11.2483
  12   2.0000      -0.403868       -10.9898
  13   2.0000      -0.272082        -7.4037
  14   2.0000      -0.271101        -7.3770
  15   2.0000      -0.246606        -6.7105
  16   0.0000       0.042849         1.1660
  17   0.0000       0.052422         1.4265
  18   0.0000       0.099373         2.7041
  19   0.0000       0.107318         2.9203
  20   0.0000       0.128660         3.5010

-------
TIMINGS
-------

Dispersion correction           -0.007444286
FINAL SINGLE POINT ENERGY      -225.170131920465

DIPOLE MOMENT
-------------
                                X             Y             Z
Electronic contribution:      0.89859       1.53382      -0.00412
Nuclear contribution   :     -1.58572      -2.70104       0.00163
                        -----------------------------------------
Total Dipole Moment    :     -0.68713      -1.16721      -0.00250
                        -----------------------------------------
Magnitude (a.u.)       :      1.35445
Magnitude (Debye)      :      3.44274

                             ****ORCA TERMINATED NORMALLY****
TOTAL RUN TIME: 0 days 0 hours 0 minutes 37 seconds 664 msec
