                         Program Version 4.0.1.2 - RELEASE -
|  1> %pal nprocs 6 end
|  2> %maxcore 1000
|  3> ! b3lyp TIGHTSCF nopop D3BJ
|  4> ! cc-pvdz def2/J RIJCOSX
|  5> ! Opt
|  6>
|  7> %geom
|  8> maxiter 60
|  9> TolE 1e-4
| 10> TolRMSG 2e-3
| 11> TolMaxG 3e-3
| 12> TolRMSD 2e-2
| 13> TolMaxD 3e-2
| 14> end
| 15>
| 16> *xyz 0 1
| 17> C 3.0922 -0.4912 0.0073
| 18> C 1.6132 -0.6688 -0.0137
| 19> N 1.0772 -1.9188 -0.0216
| 20> N 0.7554 0.2987 -0.0256
| 21> C 3.7223 0.6894 0.0167
| 22> H 3.6718 -1.4089 -0.0075
| 23> H 1.5544 -2.6134 0.5378
| 24> H 0.0812 -1.8771 0.1726
| 25> H 1.2219 1.2063 -0.0319
| 26> H 4.8078 0.7234 0.0187
| 27> H 3.209 1.6428 0.0204
| 28> *
| 29>
| 30>
| 31>                          ****END OF INPUT****
 Total Charge           Charge          ....    0
 Multiplicity           Mult            ....    1
 Number of Electrons    NEL             ....   38
Dispersion correction           -0.013566242
FINAL SINGLE POINT ENERGY      -227.285406605455
Dispersion correction            ... done
Dispersion correction           -0.013534868
FINAL SINGLE POINT ENERGY      -227.288771966132
Dispersion correction            ... done
Dispersion correction           -0.013532404
FINAL SINGLE POINT ENERGY      -227.289566605613
Dispersion correction            ... done
FINAL SINGLE POINT ENERGY      -227.289699188427
FINAL SINGLE POINT ENERGY      -227.289830125146
Dispersion correction            ... done
Dispersion correction           -0.013553839
FINAL SINGLE POINT ENERGY      -227.289956409008
Dispersion correction            ... done
Dispersion correction           -0.013561348
FINAL SINGLE POINT ENERGY      -227.290036889803
Dispersion correction            ... done
                    ***********************HURRAY********************

CARTESIAN COORDINATES (ANGSTROEM)
---------------------------------
  C      3.053596   -0.492935   -0.094026
  C      1.566576   -0.599542   -0.031243
  N      1.108703   -1.907885    0.079135
  N      0.716807    0.359582   -0.119059
  C      3.730175    0.640532    0.116382
  H      3.596489   -1.417499   -0.320125
  H      1.680203   -2.528902    0.644235
  H      0.118993   -1.960459    0.308869
  H      1.202729    1.238249   -0.327001
  H      4.819895    0.679377    0.052587
  H      3.212235    1.571882    0.363445

 Multiplicity           Mult            ....    1
 Number of Electrons    NEL             ....   38
 Basis Dimension        Dim             ....  100

ORBITAL ENERGIES
----------------

  NO   OCC          E(Eh)            E(eV)
   0   2.0000     -14.332959      -390.0197
   1   2.0000     -14.282098      -388.6356
   2   2.0000     -10.250313      -278.9252
   3   2.0000     -10.202758      -277.6312
   4   2.0000     -10.200636      -277.5734
   5   2.0000      -0.936245       -25.4765
   6   2.0000      -0.838955       -22.8291
   7   2.0000      -0.775003       -21.0889
   8   2.0000      -0.633278       -17.2324
   9   2.0000      -0.554286       -15.0829
  10   2.0000      -0.513662       -13.9775
  11   2.0000      -0.483256       -13.1501
  12   2.0000      -0.443352       -12.0642
  13   2.0000      -0.414310       -11.2740
  14   2.0000      -0.379510       -10.3270
  15   2.0000      -0.371544       -10.1102
  16   2.0000      -0.278630        -7.5819
  17   2.0000      -0.253105        -6.8873
  18   2.0000      -0.231418        -6.2972
  19   0.0000      -0.032218        -0.8767
  20   0.0000       0.057850         1.5742
  21   0.0000       0.074624         2.0306
  22   0.0000       0.083864         2.2821
  23   0.0000       0.104122         2.8333

-------
TIMINGS
-------

Dispersion correction           -0.013563971
FINAL SINGLE POINT ENERGY      -227.290072969376

DIPOLE MOMENT
-------------
                                X             Y             Z
Electronic contribution:     -1.62814      -0.53590      -0.29080
Nuclear contribution   :      2.42186       0.10143       0.67218
                        -----------------------------------------
Total Dipole Moment    :      0.79372      -0.43448       0.38138
                        -----------------------------------------
Magnitude (a.u.)       :      0.98194
Magnitude (Debye)      :      2.49590

                             ****ORCA TERMINATED NORMALLY****
TOTAL RUN TIME: 0 days 0 hours 1 minutes 30 seconds 456 msec
