                         Program Version 4.0.1.2 - RELEASE -
|  1> %pal nprocs 6 end
|  2> %maxcore 1000
|  3> ! b3lyp TIGHTSCF nopop D3BJ
|  4> ! cc-pvdz def2/J RIJCOSX
|  5> ! Opt
|  6>
|  7> %geom
|  8> maxiter 60
|  9> TolE 1e-4
| 10> TolRMSG 2e-3
| 11> TolMaxG 3e-3
| 12> TolRMSD 2e-2
| 13> TolMaxD 3e-2
| 14> end
| 15>
| 16> *xyz 0 1
| 17> N -3.983 1.7052 -0.0088
| 18> C -2.4276 -0.9233 -0.04
| 19> O -1.9181 -2.0378 -0.0467
| 20> C -3.8893 -0.7514 0.0329
| 21> C -4.4992 0.4377 0.043
| 22> H -3.0589 1.7954 -0.4219
| 23> H -4.6317 2.4048 -0.3676
| 24> H -1.8217 -0.0049 -0.0788
| 25> H -4.4594 -1.6719 0.0941
| 26> H -5.5867 0.4509 0.1296
| 27> *
| 28>
| 29>
| 30>                          ****END OF INPUT****
 Total Charge           Charge          ....    0
 Multiplicity           Mult            ....    1
 Number of Electrons    NEL             ....   38
Dispersion correction           -0.011502459
FINAL SINGLE POINT ENERGY      -247.159673552094
Dispersion correction            ... done
Dispersion correction           -0.011466503
FINAL SINGLE POINT ENERGY      -247.161722463203
Dispersion correction            ... done
Dispersion correction           -0.011475158
FINAL SINGLE POINT ENERGY      -247.162293665739
Dispersion correction            ... done
FINAL SINGLE POINT ENERGY      -247.162408003540
Dispersion correction            ... done
Dispersion correction           -0.011492229
FINAL SINGLE POINT ENERGY      -247.162327769103
Dispersion correction            ... done
Dispersion correction           -0.011482386
FINAL SINGLE POINT ENERGY      -247.162514476686
Dispersion correction            ... done
                    ***********************HURRAY********************

CARTESIAN COORDINATES (ANGSTROEM)
---------------------------------
  N     -3.990985    1.689794   -0.030663
  C     -2.446607   -0.937195   -0.057511
  O     -1.863711   -2.008442   -0.008472
  C     -3.883422   -0.764677    0.039295
  C     -4.533348    0.433065    0.014986
  H     -3.019169    1.784562   -0.305038
  H     -4.587275    2.437132   -0.365062
  H     -1.849634    0.008300   -0.194565
  H     -4.475651   -1.675155    0.150143
  H     -5.625797    0.437316    0.092686

 Multiplicity           Mult            ....    1
 Number of Electrons    NEL             ....   38
 Basis Dimension        Dim             ....   95

ORBITAL ENERGIES
----------------

  NO   OCC          E(Eh)            E(eV)
   0   2.0000     -19.107709      -519.9472
   1   2.0000     -14.368623      -390.9901
   2   2.0000     -10.252814      -278.9933
   3   2.0000     -10.251625      -278.9609
   4   2.0000     -10.174090      -276.8511
   5   2.0000      -1.013514       -27.5791
   6   2.0000      -0.940677       -25.5971
   7   2.0000      -0.765086       -20.8190
   8   2.0000      -0.644462       -17.5367
   9   2.0000      -0.559076       -15.2132
  10   2.0000      -0.550427       -14.9779
  11   2.0000      -0.493380       -13.4256
  12   2.0000      -0.439229       -11.9520
  13   2.0000      -0.397375       -10.8131
  14   2.0000      -0.392531       -10.6813
  15   2.0000      -0.384000       -10.4492
  16   2.0000      -0.352143        -9.5823
  17   2.0000      -0.231100        -6.2885
  18   2.0000      -0.226606        -6.1663
  19   0.0000      -0.036023        -0.9802
  20   0.0000       0.031988         0.8704
  21   0.0000       0.057305         1.5594
  22   0.0000       0.088045         2.3958
  23   0.0000       0.111438         3.0324

-------
TIMINGS
-------

Dispersion correction           -0.011478569
FINAL SINGLE POINT ENERGY      -247.162532272474

DIPOLE MOMENT
-------------
                                X             Y             Z
Electronic contribution:      1.71647      -2.33868       0.16247
Nuclear contribution   :     -2.76142       4.15797      -0.50212
                        -----------------------------------------
Total Dipole Moment    :     -1.04494       1.81928      -0.33965
                        -----------------------------------------
Magnitude (a.u.)       :      2.12534
Magnitude (Debye)      :      5.40218

                             ****ORCA TERMINATED NORMALLY****
TOTAL RUN TIME: 0 days 0 hours 1 minutes 12 seconds 514 msec
