                         Program Version 4.0.1.2 - RELEASE -
|  1> %pal nprocs 6 end
|  2> %maxcore 1000
|  3> ! b3lyp TIGHTSCF nopop D3BJ
|  4> ! cc-pvdz def2/J RIJCOSX
|  5> ! Opt
|  6>
|  7> %geom
|  8> maxiter 60
|  9> TolE 1e-4
| 10> TolRMSG 2e-3
| 11> TolMaxG 3e-3
| 12> TolRMSD 2e-2
| 13> TolMaxD 3e-2
| 14> end
| 15>
| 16> *xyz 0 1
| 17> C 1.5757 -0.6994 0.0255
| 18> N 1.0583 -1.9243 -0.1975
| 19> N 0.855 0.3604 0.1227
| 20> N -3.8275 1.6344 -0.0632
| 21> C -2.471 1.6192 -0.0547
| 22> O -1.8513 2.6748 -0.1214
| 23> N -1.8603 0.402 0.0284
| 24> C -2.4008 -0.8556 0.1062
| 25> O -1.7391 -1.8868 0.1783
| 26> H 2.6761 -0.6805 0.1069
| 27> H 1.545 -2.721 0.1925
| 28> H 0.0422 -1.9886 -0.0745
| 29> H 1.4737 1.1708 0.2717
| 30> H -4.2966 1.0559 0.6185
| 31> H -4.185 2.5838 -0.0696
| 32> H -0.835 0.4378 0.0269
| 33> H -3.5003 -0.8772 0.084
| 34> *
| 35>
| 36>
| 37>                          ****END OF INPUT****
 Total Charge           Charge          ....    0
 Multiplicity           Mult            ....    1
 Number of Electrons    NEL             ....   70
Dispersion correction           -0.023335185
FINAL SINGLE POINT ENERGY      -488.416944708220
Dispersion correction            ... done
Dispersion correction           -0.022850652
FINAL SINGLE POINT ENERGY      -488.423120868965
Dispersion correction            ... done
Dispersion correction           -0.022826393
FINAL SINGLE POINT ENERGY      -488.424262965265
Dispersion correction            ... done
FINAL SINGLE POINT ENERGY      -488.424648080528
FINAL SINGLE POINT ENERGY      -488.424800743837
Dispersion correction            ... done
Dispersion correction           -0.022861346
FINAL SINGLE POINT ENERGY      -488.424911349479
Dispersion correction            ... done
Dispersion correction           -0.022889545
FINAL SINGLE POINT ENERGY      -488.424987616354
Dispersion correction            ... done
                    ***********************HURRAY********************

CARTESIAN COORDINATES (ANGSTROEM)
---------------------------------
  C      1.627887   -0.708155    0.081363
  N      1.070249   -1.932827   -0.089147
  N      0.945115    0.383293    0.046978
  N     -3.872381    1.637945    0.046673
  C     -2.492955    1.646959   -0.066001
  O     -1.857325    2.661744   -0.287128
  N     -1.852170    0.403126    0.043429
  C     -2.452807   -0.817116    0.029070
  O     -1.862343   -1.889467    0.098699
  H      2.723281   -0.732161    0.222728
  H      1.607613   -2.735855    0.209709
  H      0.046144   -2.008558   -0.041453
  H      1.537588    1.208144    0.147896
  H     -4.299044    0.966364    0.675902
  H     -4.258688    2.574288    0.114719
  H     -0.790064    0.436995    0.016573
  H     -3.560999   -0.789020   -0.069310

 Multiplicity           Mult            ....    1
 Number of Electrons    NEL             ....   70
 Basis Dimension        Dim             ....  166

ORBITAL ENERGIES
----------------

  NO   OCC          E(Eh)            E(eV)
   0   2.0000     -19.125969      -520.4441
   1   2.0000     -19.102499      -519.8054
   2   2.0000     -14.350803      -390.5052
   3   2.0000     -14.349716      -390.4756
   4   2.0000     -14.334647      -390.0656
   5   2.0000     -14.296139      -389.0177
   6   2.0000     -10.313937      -280.6565
   7   2.0000     -10.297228      -280.2018
   8   2.0000     -10.259676      -279.1800
   9   2.0000      -1.053524       -28.6678
  10   2.0000      -1.037084       -28.2205
  11   2.0000      -0.938716       -25.5438
  12   2.0000      -0.926470       -25.2105
  13   2.0000      -0.889570       -24.2064
  14   2.0000      -0.846146       -23.0248
  15   2.0000      -0.649357       -17.6699
  16   2.0000      -0.614264       -16.7150
  17   2.0000      -0.597645       -16.2628
  18   2.0000      -0.556629       -15.1466
  19   2.0000      -0.546888       -14.8816
  20   2.0000      -0.504426       -13.7261
  21   2.0000      -0.480029       -13.0623
  22   2.0000      -0.454052       -12.3554
  23   2.0000      -0.441806       -12.0221
  24   2.0000      -0.438281       -11.9262
  25   2.0000      -0.427338       -11.6285
  26   2.0000      -0.413609       -11.2549
  27   2.0000      -0.387074       -10.5328
  28   2.0000      -0.369533       -10.0555
  29   2.0000      -0.293199        -7.9784
  30   2.0000      -0.278951        -7.5906
  31   2.0000      -0.269690        -7.3386
  32   2.0000      -0.259910        -7.0725
  33   2.0000      -0.254976        -6.9383
  34   2.0000      -0.237228        -6.4553
  35   0.0000      -0.012444        -0.3386
  36   0.0000       0.030990         0.8433
  37   0.0000       0.050497         1.3741
  38   0.0000       0.054610         1.4860
  39   0.0000       0.078984         2.1493

-------
TIMINGS
-------

Dispersion correction           -0.022912567
FINAL SINGLE POINT ENERGY      -488.425013294792

DIPOLE MOMENT
-------------
                                X             Y             Z
Electronic contribution:     -2.44139       1.60038      -0.47281
Nuclear contribution   :      2.42087      -2.12076       1.22520
                        -----------------------------------------
Total Dipole Moment    :     -0.02052      -0.52038       0.75239
                        -----------------------------------------
Magnitude (a.u.)       :      0.91505
Magnitude (Debye)      :      2.32586

                             ****ORCA TERMINATED NORMALLY****
TOTAL RUN TIME: 0 days 0 hours 3 minutes 13 seconds 901 msec
