                         Program Version 4.0.1.2 - RELEASE -
|  1> %pal nprocs 6 end
|  2> %maxcore 1000
|  3> ! b3lyp TIGHTSCF nopop D3BJ
|  4> ! cc-pvdz def2/J RIJCOSX
|  5> ! Opt
|  6>
|  7> %geom
|  8> maxiter 60
|  9> TolE 1e-4
| 10> TolRMSG 2e-3
| 11> TolMaxG 3e-3
| 12> TolRMSD 2e-2
| 13> TolMaxD 3e-2
| 14> end
| 15>
| 16> *xyz 0 1
| 17> C 3.1055 -0.5239 -0.0435
| 18> C 1.6176 -0.6179 -0.0968
| 19> N 1.0272 -1.8344 -0.2418
| 20> N 0.8218 0.4026 -0.0141
| 21> C 3.8041 0.6091 0.0953
| 22> C -2.5715 1.5908 -0.1051
| 23> O -2.0639 2.6907 -0.2778
| 24> N -1.872 0.4252 0.0277
| 25> C -2.4217 -0.8098 0.2203
| 26> O -1.7689 -1.8409 0.3363
| 27> H 3.6338 -1.4668 -0.1475
| 28> H 1.4962 -2.6307 0.1685
| 29> H 0.0265 -1.8394 -0.0251
| 30> H 1.362 1.2688 0.0748
| 31> H 4.8901 0.5755 0.1106
| 32> H 3.3521 1.5878 0.1952
| 33> H -3.6639 1.4573 -0.0399
| 34> H -0.8486 0.4778 -0.026
| 35> H -3.5229 -0.8045 0.2647
| 36> *
| 37>
| 38>
| 39>                          ****END OF INPUT****
 Total Charge           Charge          ....    0
 Multiplicity           Mult            ....    1
 Number of Electrons    NEL             ....   76
Dispersion correction           -0.027630086
FINAL SINGLE POINT ENERGY      -510.427286868284
Dispersion correction            ... done
Dispersion correction           -0.027139881
FINAL SINGLE POINT ENERGY      -510.432216995353
Dispersion correction            ... done
Dispersion correction           -0.027126869
FINAL SINGLE POINT ENERGY      -510.433120408163
Dispersion correction            ... done
FINAL SINGLE POINT ENERGY      -510.433477147281
FINAL SINGLE POINT ENERGY      -510.433668386571
FINAL SINGLE POINT ENERGY      -510.433887118247
Dispersion correction            ... done
Dispersion correction           -0.027211282
FINAL SINGLE POINT ENERGY      -510.434083290648
Dispersion correction            ... done
Dispersion correction           -0.027230331
FINAL SINGLE POINT ENERGY      -510.434241190595
Dispersion correction            ... done
                    ***********************HURRAY********************

CARTESIAN COORDINATES (ANGSTROEM)
---------------------------------
  C      3.120780   -0.539483   -0.127072
  C      1.630380   -0.563755   -0.126980
  N      1.078823   -1.809648   -0.108611
  N      0.877304    0.490539   -0.182569
  C      3.851210    0.520902    0.229646
  C     -2.672485    1.587415   -0.094653
  O     -2.239046    2.698705   -0.298644
  N     -1.893195    0.449180    0.020034
  C     -2.452824   -0.776299    0.242421
  O     -1.830976   -1.825718    0.332982
  H      3.617101   -1.467263   -0.432373
  H      1.649989   -2.570132    0.237472
  H      0.067416   -1.893984    0.044278
  H      1.430711    1.339566   -0.305892
  H      4.942735    0.494751    0.205507
  H      3.381967    1.449902    0.565263
  H     -3.764054    1.370909    0.018295
  H     -0.829488    0.512462   -0.087737
  H     -3.562848   -0.750748    0.344434

 Multiplicity           Mult            ....    1
 Number of Electrons    NEL             ....   76
 Basis Dimension        Dim             ....  185

ORBITAL ENERGIES
----------------

  NO   OCC          E(Eh)            E(eV)
   0   2.0000     -19.135005      -520.6900
   1   2.0000     -19.124478      -520.4035
   2   2.0000     -14.358568      -390.7165
   3   2.0000     -14.338760      -390.1775
   4   2.0000     -14.299305      -389.1039
   5   2.0000     -10.304098      -280.3888
   6   2.0000     -10.296176      -280.1732
   7   2.0000     -10.269793      -279.4553
   8   2.0000     -10.213647      -277.9275
   9   2.0000     -10.211253      -277.8623
  10   2.0000      -1.057857       -28.7858
  11   2.0000      -1.042164       -28.3587
  12   2.0000      -0.950626       -25.8679
  13   2.0000      -0.927130       -25.2285
  14   2.0000      -0.852444       -23.1962
  15   2.0000      -0.786393       -21.3989
  16   2.0000      -0.650314       -17.6959
  17   2.0000      -0.646228       -17.5848
  18   2.0000      -0.623816       -16.9749
  19   2.0000      -0.572891       -15.5892
  20   2.0000      -0.530696       -14.4410
  21   2.0000      -0.517456       -14.0807
  22   2.0000      -0.502049       -13.6615
  23   2.0000      -0.474333       -12.9073
  24   2.0000      -0.459222       -12.4961
  25   2.0000      -0.439478       -11.9588
  26   2.0000      -0.437124       -11.8947
  27   2.0000      -0.431283       -11.7358
  28   2.0000      -0.419728       -11.4214
  29   2.0000      -0.389879       -10.6091
  30   2.0000      -0.387769       -10.5517
  31   2.0000      -0.381395       -10.3783
  32   2.0000      -0.301255        -8.1976
  33   2.0000      -0.288308        -7.8453
  34   2.0000      -0.278585        -7.5807
  35   2.0000      -0.269325        -7.3287
  36   2.0000      -0.255162        -6.9433
  37   2.0000      -0.241021        -6.5585
  38   0.0000      -0.042876        -1.1667
  39   0.0000      -0.023636        -0.6432
  40   0.0000       0.041812         1.1378
  41   0.0000       0.055559         1.5118
  42   0.0000       0.067228         1.8294

-------
TIMINGS
-------

Dispersion correction           -0.027226543
FINAL SINGLE POINT ENERGY      -510.434284404949

DIPOLE MOMENT
-------------
                                X             Y             Z
Electronic contribution:     -6.41608       0.84011      -0.33722
Nuclear contribution   :      7.36328      -1.59089       0.62139
                        -----------------------------------------
Total Dipole Moment    :      0.94720      -0.75078       0.28417
                        -----------------------------------------
Magnitude (a.u.)       :      1.24161
Magnitude (Debye)      :      3.15593

                             ****ORCA TERMINATED NORMALLY****
TOTAL RUN TIME: 0 days 0 hours 3 minutes 23 seconds 358 msec
