                         Program Version 4.0.1.2 - RELEASE -
|  1> %pal nprocs 6 end
|  2> %maxcore 1000
|  3> ! b3lyp TIGHTSCF nopop D3BJ
|  4> ! cc-pvdz def2/J RIJCOSX
|  5> ! Opt
|  6>
|  7> %geom
|  8> maxiter 60
|  9> TolE 1e-4
| 10> TolRMSG 2e-3
| 11> TolMaxG 3e-3
| 12> TolRMSD 2e-2
| 13> TolMaxD 3e-2
| 14> end
| 15>
| 16> *xyz 0 1
| 17> C -2.4612 -0.8309 -0.0001
| 18> O -1.8258 -1.8781 0.0001
| 19> C -3.947 -0.7973 0.0011
| 20> C -4.659 -2.1113 0.003
| 21> C -4.559 0.3961 0.0005
| 22> H -1.9562 0.1498 -0.0012
| 23> H -4.3936 -2.6932 -0.8857
| 24> H -5.7467 -1.9834 0.0038
| 25> H -4.3921 -2.6915 0.8924
| 26> H -4.0114 1.3337 -0.0009
| 27> H -5.6432 0.4663 0.0013
| 28> *
| 29>
| 30>
| 31>                          ****END OF INPUT****
 Total Charge           Charge          ....    0
 Multiplicity           Mult            ....    1
 Number of Electrons    NEL             ....   38
Dispersion correction           -0.013287855
FINAL SINGLE POINT ENERGY      -231.118892648535
Dispersion correction            ... done
Dispersion correction           -0.013270136
FINAL SINGLE POINT ENERGY      -231.119624762509
Dispersion correction            ... done
Dispersion correction           -0.013269218
FINAL SINGLE POINT ENERGY      -231.119759379184
Dispersion correction            ... done
                    ***********************HURRAY********************

CARTESIAN COORDINATES (ANGSTROEM)
---------------------------------
  C     -2.480225   -0.837369   -0.000350
  O     -1.834590   -1.864658    0.001062
  C     -3.962337   -0.796798    0.000944
  C     -4.667954   -2.122840    0.002911
  C     -4.558506    0.406993    0.000418
  H     -1.981070    0.168454   -0.001332
  H     -4.370988   -2.717729   -0.876996
  H     -5.761488   -2.002799    0.004271
  H     -4.368604   -2.716279    0.882984
  H     -3.963034    1.325707   -0.000991
  H     -5.646403    0.517518    0.001380

 Multiplicity           Mult            ....    1
 Number of Electrons    NEL             ....   38
 Basis Dimension        Dim             ....  100

ORBITAL ENERGIES
----------------

  NO   OCC          E(Eh)            E(eV)
   0   2.0000     -19.137900      -520.7687
   1   2.0000     -10.271442      -279.5001
   2   2.0000     -10.210174      -277.8330
   3   2.0000     -10.209153      -277.8052
   4   2.0000     -10.191409      -277.3223
   5   2.0000      -1.043907       -28.4062
   6   2.0000      -0.816986       -22.2313
   7   2.0000      -0.702648       -19.1200
   8   2.0000      -0.637362       -17.3435
   9   2.0000      -0.534992       -14.5579
  10   2.0000      -0.483858       -13.1665
  11   2.0000      -0.461643       -12.5619
  12   2.0000      -0.427877       -11.6431
  13   2.0000      -0.413342       -11.2476
  14   2.0000      -0.384920       -10.4742
  15   2.0000      -0.379501       -10.3268
  16   2.0000      -0.379211       -10.3189
  17   2.0000      -0.278292        -7.5727
  18   2.0000      -0.254439        -6.9236
  19   0.0000      -0.059586        -1.6214
  20   0.0000       0.054086         1.4718
  21   0.0000       0.066358         1.8057
  22   0.0000       0.090998         2.4762
  23   0.0000       0.102300         2.7837

-------
TIMINGS
-------

Dispersion correction           -0.013272340
FINAL SINGLE POINT ENERGY      -231.119777038456

DIPOLE MOMENT
-------------
                                X             Y             Z
Electronic contribution:      4.05693      -0.32835      -0.00326
Nuclear contribution   :     -4.87022       0.96516       0.00284
                        -----------------------------------------
Total Dipole Moment    :     -0.81329       0.63681      -0.00042
                        -----------------------------------------
Magnitude (a.u.)       :      1.03294
Magnitude (Debye)      :      2.62554

                             ****ORCA TERMINATED NORMALLY****
TOTAL RUN TIME: 0 days 0 hours 0 minutes 34 seconds 173 msec
