                         Program Version 4.0.1.2 - RELEASE -
|  1> %pal nprocs 6 end
|  2> %maxcore 1000
|  3> ! b3lyp TIGHTSCF nopop D3BJ
|  4> ! cc-pvdz def2/J RIJCOSX
|  5> ! Opt
|  6>
|  7> %geom
|  8> maxiter 60
|  9> TolE 1e-4
| 10> TolRMSG 2e-3
| 11> TolMaxG 3e-3
| 12> TolRMSD 2e-2
| 13> TolMaxD 3e-2
| 14> end
| 15>
| 16> *xyz 0 1
| 17> C -4.6589 -2.1196 0.003
| 18> H -4.144 -1.1564 0.0015
| 19> H -4.3768 -2.6846 -0.8882
| 20> H -5.7387 -1.9552 0.0032
| 21> H -4.3761 -2.6822 0.8954
| 22> *
| 23>
| 24>
| 25>                          ****END OF INPUT****
 Total Charge           Charge          ....    0
 Multiplicity           Mult            ....    1
 Number of Electrons    NEL             ....   10
Dispersion correction           -0.001913273
FINAL SINGLE POINT ENERGY       -40.482230024747
Dispersion correction            ... done
Dispersion correction           -0.001912641
FINAL SINGLE POINT ENERGY       -40.482394812637
Dispersion correction            ... done
                    ***********************HURRAY********************

CARTESIAN COORDINATES (ANGSTROEM)
---------------------------------
  C     -4.659343   -2.119559    0.002978
  H     -4.140346   -1.149506    0.001485
  H     -4.374125   -2.688984   -0.894132
  H     -5.747288   -1.953354    0.003191
  H     -4.373398   -2.686597    0.901378

 Multiplicity           Mult            ....    1
 Number of Electrons    NEL             ....   10
 Basis Dimension        Dim             ....   34

ORBITAL ENERGIES
----------------

  NO   OCC          E(Eh)            E(eV)
   0   2.0000     -10.171064      -276.7687
   1   2.0000      -0.686699       -18.6860
   2   2.0000      -0.385135       -10.4801
   3   2.0000      -0.384816       -10.4714
   4   2.0000      -0.384800       -10.4709
   5   0.0000       0.075906         2.0655
   6   0.0000       0.145061         3.9473
   7   0.0000       0.145205         3.9512
   8   0.0000       0.146505         3.9866
   9   0.0000       0.415157        11.2970

-------
TIMINGS
-------

Dispersion correction           -0.001912640
FINAL SINGLE POINT ENERGY       -40.482394610680

DIPOLE MOMENT
-------------
                                X             Y             Z
Electronic contribution:     -0.00064       0.00357      -0.00000
Nuclear contribution   :      0.00156      -0.00014       0.00001
                        -----------------------------------------
Total Dipole Moment    :      0.00091       0.00342       0.00000
                        -----------------------------------------
Magnitude (a.u.)       :      0.00354
Magnitude (Debye)      :      0.00900

                             ****ORCA TERMINATED NORMALLY****
TOTAL RUN TIME: 0 days 0 hours 0 minutes 13 seconds 557 msec
