                         Program Version 4.0.1.2 - RELEASE -
|  1> %pal nprocs 6 end
|  2> %maxcore 1000
|  3> ! b3lyp TIGHTSCF nopop D3BJ
|  4> ! cc-pvdz def2/J RIJCOSX
|  5> ! Opt
|  6>
|  7> %geom
|  8> maxiter 60
|  9> TolE 1e-4
| 10> TolRMSG 2e-3
| 11> TolMaxG 3e-3
| 12> TolRMSD 2e-2
| 13> TolMaxD 3e-2
| 14> end
| 15>
| 16> *xyz 0 1
| 17> C 1.6361 -0.6939 -0.0805
| 18> N 1.0537 -1.9099 -0.2571
| 19> N 0.9705 0.4037 -0.0226
| 20> C 1.5816 1.6168 0.1529
| 21> N 2.8444 1.8262 0.2834
| 22> N -3.8738 1.5875 -0.1017
| 23> C -2.5195 1.5806 -0.1243
| 24> O -1.8979 2.633 -0.2232
| 25> N -1.8956 0.3714 -0.0398
| 26> C -2.4171 -0.8908 0.0681
| 27> O -1.7247 -1.9015 0.1392
| 28> H 2.7321 -0.7792 -0.0047
| 29> H 1.5165 -2.7204 0.1363
| 30> H 0.0378 -1.9451 -0.1269
| 31> H 0.907 2.4898 0.1869
| 32> H 3.3922 0.9744 0.2337
| 33> H -4.3332 1.0064 0.5851
| 34> H -4.2418 2.5327 -0.1118
| 35> H -0.8783 0.4203 -0.0758
| 36> H -3.5167 -0.9332 0.0761
| 37> *
| 38>
| 39>
| 40>                          ****END OF INPUT****
 Total Charge           Charge          ....    0
 Multiplicity           Mult            ....    1
 Number of Electrons    NEL             ....   84
Dispersion correction           -0.030329322
FINAL SINGLE POINT ENERGY      -581.818347346407
Dispersion correction            ... done
Dispersion correction           -0.029948705
FINAL SINGLE POINT ENERGY      -581.826936626033
Dispersion correction            ... done
Dispersion correction           -0.030131504
FINAL SINGLE POINT ENERGY      -581.829138962767
Dispersion correction            ... done
FINAL SINGLE POINT ENERGY      -581.829797558653
FINAL SINGLE POINT ENERGY      -581.830123367193
FINAL SINGLE POINT ENERGY      -581.830427151409
FINAL SINGLE POINT ENERGY      -581.830824256853
FINAL SINGLE POINT ENERGY      -581.831286609206
FINAL SINGLE POINT ENERGY      -581.831726099428
Dispersion correction            ... done
Dispersion correction           -0.030153305
FINAL SINGLE POINT ENERGY      -581.832013649518
Dispersion correction            ... done
Dispersion correction           -0.030119044
FINAL SINGLE POINT ENERGY      -581.832136400553
Dispersion correction            ... done
                    ***********************HURRAY********************

CARTESIAN COORDINATES (ANGSTROEM)
---------------------------------
  C      1.627347   -0.719096   -0.114578
  N      1.057763   -1.932121   -0.044210
  N      0.953008    0.383010   -0.003219
  C      1.639389    1.610146    0.010391
  N      2.788138    1.900126    0.492722
  N     -3.871054    1.602061    0.041518
  C     -2.503959    1.598470   -0.154559
  O     -1.876817    2.578558   -0.507652
  N     -1.859752    0.361440    0.044474
  C     -2.446989   -0.865269    0.066347
  O     -1.833685   -1.923651    0.163098
  H      2.717790   -0.715090   -0.287175
  H      1.601093   -2.748994   -0.287225
  H      0.034537   -2.014443    0.040332
  H      1.039798    2.420643   -0.430099
  H      3.209000    1.063399    0.926925
  H     -4.273242    0.992667    0.744518
  H     -4.270603    2.534480    0.006288
  H     -0.803554    0.396560    0.012190
  H     -3.554907   -0.854096   -0.026787

 Multiplicity           Mult            ....    1
 Number of Electrons    NEL             ....   84
 Basis Dimension        Dim             ....  199

ORBITAL ENERGIES
----------------

  NO   OCC          E(Eh)            E(eV)
   0   2.0000     -19.137769      -520.7652
   1   2.0000     -19.115277      -520.1531
   2   2.0000     -14.362049      -390.8112
   3   2.0000     -14.361334      -390.7918
   4   2.0000     -14.360241      -390.7620
   5   2.0000     -14.317205      -389.5910
   6   2.0000     -14.294123      -388.9629
   7   2.0000     -10.325683      -280.9761
   8   2.0000     -10.308728      -280.5148
   9   2.0000     -10.280657      -279.7509
  10   2.0000     -10.236313      -278.5442
  11   2.0000      -1.065568       -28.9956
  12   2.0000      -1.049141       -28.5486
  13   2.0000      -0.970652       -26.4128
  14   2.0000      -0.937844       -25.5200
  15   2.0000      -0.909793       -24.7567
  16   2.0000      -0.899926       -24.4882
  17   2.0000      -0.839566       -22.8457
  18   2.0000      -0.663621       -18.0580
  19   2.0000      -0.657435       -17.8897
  20   2.0000      -0.620223       -16.8771
  21   2.0000      -0.588349       -16.0098
  22   2.0000      -0.566405       -15.4127
  23   2.0000      -0.553068       -15.0498
  24   2.0000      -0.517502       -14.0819
  25   2.0000      -0.497684       -13.5427
  26   2.0000      -0.485999       -13.2247
  27   2.0000      -0.457411       -12.4468
  28   2.0000      -0.451160       -12.2767
  29   2.0000      -0.441438       -12.0121
  30   2.0000      -0.426438       -11.6040
  31   2.0000      -0.418639       -11.3918
  32   2.0000      -0.398536       -10.8447
  33   2.0000      -0.387435       -10.5426
  34   2.0000      -0.333000        -9.0614
  35   2.0000      -0.302308        -8.2262
  36   2.0000      -0.292259        -7.9528
  37   2.0000      -0.284136        -7.7317
  38   2.0000      -0.276192        -7.5156
  39   2.0000      -0.266587        -7.2542
  40   2.0000      -0.245836        -6.6895
  41   2.0000      -0.238066        -6.4781
  42   0.0000      -0.023398        -0.6367
  43   0.0000      -0.017006        -0.4628
  44   0.0000       0.042531         1.1573
  45   0.0000       0.048579         1.3219
  46   0.0000       0.062537         1.7017

-------
TIMINGS
-------

Dispersion correction           -0.030088420
FINAL SINGLE POINT ENERGY      -581.832205107490

DIPOLE MOMENT
-------------
                                X             Y             Z
Electronic contribution:     -2.09356       0.87177      -0.40121
Nuclear contribution   :      1.08584      -2.36013       0.63634
                        -----------------------------------------
Total Dipole Moment    :     -1.00772      -1.48835       0.23513
                        -----------------------------------------
Magnitude (a.u.)       :      1.81273
Magnitude (Debye)      :      4.60759

                             ****ORCA TERMINATED NORMALLY****
TOTAL RUN TIME: 0 days 0 hours 6 minutes 49 seconds 172 msec
