                         Program Version 4.0.1.2 - RELEASE -
|  1> %pal nprocs 6 end
|  2> %maxcore 1000
|  3> ! b3lyp TIGHTSCF nopop D3BJ
|  4> ! cc-pvdz def2/J RIJCOSX
|  5> ! Opt
|  6>
|  7> %geom
|  8> maxiter 60
|  9> TolE 1e-4
| 10> TolRMSG 2e-3
| 11> TolMaxG 3e-3
| 12> TolRMSD 2e-2
| 13> TolMaxD 3e-2
| 14> end
| 15>
| 16> *xyz 0 1
| 17> C -4.5691 0.4012 0.001
| 18> C -2.4525 -0.8274 -0.0023
| 19> O -1.8559 -1.8966 -0.0003
| 20> C -3.9275 -0.7722 0.0035
| 21> H -4.0469 1.3528 -0.0053
| 22> H -5.6548 0.4304 0.0053
| 23> H -1.9258 0.1412 -0.0085
| 24> H -4.448 -1.7226 0.0098
| 25> *
| 26>
| 27>
| 28>                          ****END OF INPUT****
 Total Charge           Charge          ....    0
 Multiplicity           Mult            ....    1
 Number of Electrons    NEL             ....   30
Dispersion correction           -0.008051854
FINAL SINGLE POINT ENERGY      -191.820585858656
Dispersion correction            ... done
Dispersion correction           -0.008037758
FINAL SINGLE POINT ENERGY      -191.821437835295
Dispersion correction            ... done
Dispersion correction           -0.008036671
FINAL SINGLE POINT ENERGY      -191.821619678031
Dispersion correction            ... done
                    ***********************HURRAY********************

CARTESIAN COORDINATES (ANGSTROEM)
---------------------------------
  C     -4.575389    0.396776    0.001088
  C     -2.457726   -0.846959   -0.000888
  O     -1.824319   -1.881231   -0.000413
  C     -3.931723   -0.778032    0.003594
  H     -4.021714    1.341965   -0.004637
  H     -5.666688    0.459476    0.004849
  H     -1.945129    0.152963   -0.009891
  H     -4.457812   -1.738158    0.009497

 Multiplicity           Mult            ....    1
 Number of Electrons    NEL             ....   30
 Basis Dimension        Dim             ....   76

ORBITAL ENERGIES
----------------

  NO   OCC          E(Eh)            E(eV)
   0   2.0000     -19.138439      -520.7834
   1   2.0000     -10.275417      -279.6083
   2   2.0000     -10.220952      -278.1262
   3   2.0000     -10.209105      -277.8039
   4   2.0000      -1.044417       -28.4200
   5   2.0000      -0.803011       -21.8510
   6   2.0000      -0.646925       -17.6037
   7   2.0000      -0.569636       -15.5006
   8   2.0000      -0.475421       -12.9369
   9   2.0000      -0.473476       -12.8839
  10   2.0000      -0.418639       -11.3917
  11   2.0000      -0.398520       -10.8443
  12   2.0000      -0.391226       -10.6458
  13   2.0000      -0.294129        -8.0037
  14   2.0000      -0.255679        -6.9574
  15   0.0000      -0.066312        -1.8044
  16   0.0000       0.052451         1.4273
  17   0.0000       0.072020         1.9598
  18   0.0000       0.078173         2.1272
  19   0.0000       0.122807         3.3418

-------
TIMINGS
-------

Dispersion correction           -0.008039519
FINAL SINGLE POINT ENERGY      -191.821637463374

DIPOLE MOMENT
-------------
                                X             Y             Z
Electronic contribution:      2.40152      -2.33746       0.00299
Nuclear contribution   :     -3.22199       3.17431      -0.00278
                        -----------------------------------------
Total Dipole Moment    :     -0.82047       0.83686       0.00020
                        -----------------------------------------
Magnitude (a.u.)       :      1.17197
Magnitude (Debye)      :      2.97890

                             ****ORCA TERMINATED NORMALLY****
TOTAL RUN TIME: 0 days 0 hours 0 minutes 28 seconds 821 msec
