                         Program Version 4.0.1.2 - RELEASE -
|  1> %pal nprocs 6 end
|  2> %maxcore 1000
|  3> ! b3lyp TIGHTSCF nopop D3BJ
|  4> ! cc-pvdz def2/J RIJCOSX
|  5> ! Opt
|  6>
|  7> %geom
|  8> maxiter 60
|  9> TolE 1e-4
| 10> TolRMSG 2e-3
| 11> TolMaxG 3e-3
| 12> TolRMSD 2e-2
| 13> TolMaxD 3e-2
| 14> end
| 15>
| 16> *xyz 0 1
| 17> C 1.6373 -0.7241 0.0398
| 18> N 0.9883 -1.8837 -0.1904
| 19> N 1.0628 0.4264 0.0506
| 20> N -1.7593 0.4247 -0.0275
| 21> C -2.4087 -0.7585 0.068
| 22> O -1.8054 -1.8223 0.17
| 23> C -3.8911 -0.7325 0.0454
| 24> C -4.6778 0.3463 -0.0601
| 25> H 2.7212 -0.8434 0.2097
| 26> H 1.3396 -2.7165 0.2641
| 27> H -0.0348 -1.8263 -0.1268
| 28> H 1.7759 1.1442 0.2337
| 29> H -2.201 1.3205 -0.1406
| 30> H -0.7325 0.4182 -0.0255
| 31> H -4.3386 -1.7195 0.1247
| 32> H -4.2992 1.357 -0.1421
| 33> H -5.7574 0.2282 -0.0655
| 34> *
| 35>
| 36>
| 37>                          ****END OF INPUT****
 Total Charge           Charge          ....    0
 Multiplicity           Mult            ....    1
 Number of Electrons    NEL             ....   62
Dispersion correction           -0.022351276
FINAL SINGLE POINT ENERGY      -397.136741468967
Dispersion correction            ... done
Dispersion correction           -0.021963679
FINAL SINGLE POINT ENERGY      -397.139205977881
Dispersion correction            ... done
Dispersion correction           -0.021931650
FINAL SINGLE POINT ENERGY      -397.139866339678
Dispersion correction            ... done
FINAL SINGLE POINT ENERGY      -397.140299643656
Dispersion correction            ... done
Dispersion correction           -0.021990596
FINAL SINGLE POINT ENERGY      -397.140456888185
Dispersion correction            ... done
Dispersion correction           -0.022036459
FINAL SINGLE POINT ENERGY      -397.140586454550
Dispersion correction            ... done
                    ***********************HURRAY********************

CARTESIAN COORDINATES (ANGSTROEM)
---------------------------------
  C      1.676337   -0.754727    0.043338
  N      0.994379   -1.921016   -0.071724
  N      1.107883    0.402096   -0.019915
  N     -1.769017    0.476843    0.068812
  C     -2.413796   -0.706039    0.078398
  O     -1.837869   -1.802569    0.172817
  C     -3.909207   -0.714655   -0.027369
  C     -4.727251    0.341603   -0.043938
  H      2.767955   -0.882486    0.166300
  H      1.459602   -2.751979    0.272370
  H     -0.035032   -1.884332    0.032402
  H      1.804769    1.147047    0.045336
  H     -2.296562    1.319848   -0.115302
  H     -0.727267    0.512186    0.018113
  H     -4.301911   -1.733137   -0.092736
  H     -4.363529    1.371466    0.031946
  H     -5.810186    0.218549   -0.131349

 Multiplicity           Mult            ....    1
 Number of Electrons    NEL             ....   62
 Basis Dimension        Dim             ....  157

ORBITAL ENERGIES
----------------

  NO   OCC          E(Eh)            E(eV)
   0   2.0000     -19.096399      -519.6394
   1   2.0000     -14.323421      -389.7601
   2   2.0000     -14.321114      -389.6973
   3   2.0000     -14.288964      -388.8225
   4   2.0000     -10.278201      -279.6841
   5   2.0000     -10.250504      -278.9304
   6   2.0000     -10.201869      -277.6070
   7   2.0000     -10.196343      -277.4566
   8   2.0000      -1.018171       -27.7058
   9   2.0000      -0.927792       -25.2465
  10   2.0000      -0.884890       -24.0791
  11   2.0000      -0.836143       -22.7526
  12   2.0000      -0.776797       -21.1377
  13   2.0000      -0.631226       -17.1765
  14   2.0000      -0.592280       -16.1168
  15   2.0000      -0.556469       -15.1423
  16   2.0000      -0.538019       -14.6403
  17   2.0000      -0.520554       -14.1650
  18   2.0000      -0.474703       -12.9173
  19   2.0000      -0.450123       -12.2485
  20   2.0000      -0.442508       -12.0413
  21   2.0000      -0.430806       -11.7228
  22   2.0000      -0.399372       -10.8675
  23   2.0000      -0.394807       -10.7432
  24   2.0000      -0.369204       -10.0465
  25   2.0000      -0.359500        -9.7825
  26   2.0000      -0.277184        -7.5426
  27   2.0000      -0.271857        -7.3976
  28   2.0000      -0.251856        -6.8534
  29   2.0000      -0.243934        -6.6378
  30   2.0000      -0.227015        -6.1774
  31   0.0000      -0.033425        -0.9095
  32   0.0000       0.039126         1.0647
  33   0.0000       0.058104         1.5811
  34   0.0000       0.061789         1.6814
  35   0.0000       0.090074         2.4510

-------
TIMINGS
-------

Dispersion correction           -0.022032555
FINAL SINGLE POINT ENERGY      -397.140627380447

DIPOLE MOMENT
-------------
                                X             Y             Z
Electronic contribution:      0.11214      -1.88042       0.13307
Nuclear contribution   :      0.14530       2.46817      -0.02594
                        -----------------------------------------
Total Dipole Moment    :      0.25744       0.58774       0.10712
                        -----------------------------------------
Magnitude (a.u.)       :      0.65054
Magnitude (Debye)      :      1.65353

                             ****ORCA TERMINATED NORMALLY****
TOTAL RUN TIME: 0 days 0 hours 2 minutes 32 seconds 752 msec
