                         Program Version 4.0.1.2 - RELEASE -
|  1> %pal nprocs 6 end
|  2> %maxcore 1000
|  3> ! b3lyp TIGHTSCF nopop D3BJ
|  4> ! cc-pvdz def2/J RIJCOSX
|  5> ! Opt
|  6>
|  7> %geom
|  8> maxiter 60
|  9> TolE 1e-4
| 10> TolRMSG 2e-3
| 11> TolMaxG 3e-3
| 12> TolRMSD 2e-2
| 13> TolMaxD 3e-2
| 14> end
| 15>
| 16> *xyz 0 1
| 17> C 3.0468 -0.8188 0.0556
| 18> C 1.7363 -0.6081 -0.1437
| 19> N 0.9739 -1.694 -0.5068
| 20> N 1.0975 0.603 -0.0147
| 21> C 1.7271 1.6746 0.3193
| 22> N -1.8301 0.4631 -0.0998
| 23> C -2.4236 -0.7178 0.2049
| 24> O -1.7675 -1.7083 0.5082
| 25> C -3.9044 -0.7749 0.1593
| 26> C -4.7361 0.2275 -0.1539
| 27> H 3.4755 -1.8083 -0.0884
| 28> H 3.7505 -0.0529 0.3468
| 29> H 1.3485 -2.5759 -0.1739
| 30> H 0.0115 -1.5861 -0.166
| 31> H 2.8006 1.7587 0.5313
| 32> H 1.1571 2.6157 0.4015
| 33> H -2.3074 1.2363 -0.5254
| 34> H -0.808 0.4678 -0.141
| 35> H -4.3075 -1.7561 0.4082
| 36> H -4.4022 1.2284 -0.4046
| 37> H -5.8078 0.0548 -0.1519
| 38> *
| 39>
| 40>
| 41>                          ****END OF INPUT****
 Total Charge           Charge          ....    0
 Multiplicity           Mult            ....    1
 Number of Electrons    NEL             ....   76
Dispersion correction           -0.030779148
FINAL SINGLE POINT ENERGY      -474.460210485996
Dispersion correction            ... done
Dispersion correction           -0.030358984
FINAL SINGLE POINT ENERGY      -474.467505751384
Dispersion correction            ... done
Dispersion correction           -0.030283371
FINAL SINGLE POINT ENERGY      -474.469481658432
Dispersion correction            ... done
FINAL SINGLE POINT ENERGY      -474.470194066221
FINAL SINGLE POINT ENERGY      -474.470708261014
FINAL SINGLE POINT ENERGY      -474.471457121287
FINAL SINGLE POINT ENERGY      -474.472362403528
FINAL SINGLE POINT ENERGY      -474.473126243835
FINAL SINGLE POINT ENERGY      -474.470556871656
FINAL SINGLE POINT ENERGY      -474.473551096313
FINAL SINGLE POINT ENERGY      -474.473377121172
FINAL SINGLE POINT ENERGY      -474.474034008875
FINAL SINGLE POINT ENERGY      -474.473408833717
FINAL SINGLE POINT ENERGY      -474.474247285617
Dispersion correction            ... done
Dispersion correction           -0.030283765
FINAL SINGLE POINT ENERGY      -474.473809703169
Dispersion correction            ... done
Dispersion correction           -0.030294115
FINAL SINGLE POINT ENERGY      -474.474570877870
Dispersion correction            ... done
                    ***********************HURRAY********************

CARTESIAN COORDINATES (ANGSTROEM)
---------------------------------
  C      2.955654   -0.806297    0.742001
  C      1.801555   -0.670684    0.051317
  N      1.121357   -1.658984   -0.641696
  N      1.119761    0.580400   -0.029478
  C      1.774570    1.630330   -0.324324
  N     -1.857215    0.523588    0.040775
  C     -2.437013   -0.693995   -0.107030
  O     -1.788563   -1.745495   -0.182238
  C     -3.929899   -0.755221   -0.137119
  C     -4.754807    0.193708    0.319220
  H      3.410785   -1.789556    0.876896
  H      3.438596    0.053123    1.204380
  H      1.514570   -2.584500   -0.495671
  H      0.103952   -1.668374   -0.482884
  H      2.849909    1.614388   -0.567468
  H      1.251720    2.596360   -0.341881
  H     -2.383448    1.365508   -0.154723
  H     -0.828431    0.568032    0.058263
  H     -4.312942   -1.705941   -0.517183
  H     -4.380105    1.125452    0.753210
  H     -5.839305    0.056857    0.300632

 Multiplicity           Mult            ....    1
 Number of Electrons    NEL             ....   76
 Basis Dimension        Dim             ....  195

ORBITAL ENERGIES
----------------

  NO   OCC          E(Eh)            E(eV)
   0   2.0000     -19.104194      -519.8515
   1   2.0000     -14.349557      -390.4713
   2   2.0000     -14.335711      -390.0945
   3   2.0000     -14.306891      -389.3103
   4   2.0000     -10.285544      -279.8839
   5   2.0000     -10.243831      -278.7488
   6   2.0000     -10.239328      -278.6263
   7   2.0000     -10.206212      -277.7251
   8   2.0000     -10.201774      -277.6044
   9   2.0000     -10.153789      -276.2986
  10   2.0000      -1.026394       -27.9296
  11   2.0000      -0.953499       -25.9460
  12   2.0000      -0.894113       -24.3301
  13   2.0000      -0.872867       -23.7519
  14   2.0000      -0.783177       -21.3113
  15   2.0000      -0.718759       -19.5584
  16   2.0000      -0.649415       -17.6715
  17   2.0000      -0.636080       -17.3086
  18   2.0000      -0.565287       -15.3822
  19   2.0000      -0.546107       -14.8603
  20   2.0000      -0.532046       -14.4777
  21   2.0000      -0.506814       -13.7911
  22   2.0000      -0.483753       -13.1636
  23   2.0000      -0.468757       -12.7555
  24   2.0000      -0.456807       -12.4304
  25   2.0000      -0.446111       -12.1393
  26   2.0000      -0.419924       -11.4267
  27   2.0000      -0.403518       -10.9803
  28   2.0000      -0.402400       -10.9499
  29   2.0000      -0.385997       -10.5035
  30   2.0000      -0.374731       -10.1969
  31   2.0000      -0.359796        -9.7905
  32   2.0000      -0.309997        -8.4354
  33   2.0000      -0.283474        -7.7137
  34   2.0000      -0.272764        -7.4223
  35   2.0000      -0.262230        -7.1356
  36   2.0000      -0.252146        -6.8612
  37   2.0000      -0.195224        -5.3123
  38   0.0000      -0.038819        -1.0563
  39   0.0000      -0.035440        -0.9644
  40   0.0000       0.053638         1.4596
  41   0.0000       0.067077         1.8253
  42   0.0000       0.079672         2.1680

-------
TIMINGS
-------

Dispersion correction           -0.030305205
FINAL SINGLE POINT ENERGY      -474.474659150067

DIPOLE MOMENT
-------------
                                X             Y             Z
Electronic contribution:     -1.68761      -1.96165      -0.98370
Nuclear contribution   :      1.24946       3.24078       0.92348
                        -----------------------------------------
Total Dipole Moment    :     -0.43815       1.27913      -0.06022
                        -----------------------------------------
Magnitude (a.u.)       :      1.35343
Magnitude (Debye)      :      3.44015

                             ****ORCA TERMINATED NORMALLY****
TOTAL RUN TIME: 0 days 0 hours 9 minutes 41 seconds 328 msec
