                         Program Version 4.0.1.2 - RELEASE -
|  1> %pal nprocs 6 end
|  2> %maxcore 1000
|  3> ! b3lyp TIGHTSCF nopop D3BJ
|  4> ! cc-pvdz def2/J RIJCOSX
|  5> ! Opt
|  6>
|  7> %geom
|  8> maxiter 60
|  9> TolE 1e-4
| 10> TolRMSG 2e-3
| 11> TolMaxG 3e-3
| 12> TolRMSD 2e-2
| 13> TolMaxD 3e-2
| 14> end
| 15>
| 16> *xyz 0 1
| 17> C 1.6301 -0.6925 -0.1409
| 18> N 0.9349 -1.846 -0.3245
| 19> N 1.0823 0.4702 -0.1287
| 20> C 1.8069 1.6133 0.0567
| 21> N 3.0773 1.701 0.2376
| 22> N -1.8841 0.4815 0.0057
| 23> C -2.4859 -0.7328 0.0522
| 24> O -1.8093 -1.7565 0.1063
| 25> C -3.9819 -0.7758 0.0351
| 26> C -4.5619 -2.161 0.0905
| 27> C -4.7694 0.3115 -0.0236
| 28> H 2.7066 -0.8892 -0.013
| 29> H 1.2861 -2.6842 0.121
| 30> H -0.0842 -1.7702 -0.2243
| 31> H 1.2229 2.5496 0.0505
| 32> H 3.5355 0.7959 0.2274
| 33> H -2.3623 1.3569 -0.1195
| 34> H -0.8654 0.4977 -0.0412
| 35> H -4.225 -2.7506 -0.7689
| 36> H -5.6567 -2.1503 0.0737
| 37> H -4.2517 -2.6694 1.0093
| 38> H -4.3969 1.3269 -0.059
| 39> H -5.8514 0.2075 -0.0317
| 40> *
| 41>
| 42>
| 43>                          ****END OF INPUT****
 Total Charge           Charge          ....    0
 Multiplicity           Mult            ....    1
 Number of Electrons    NEL             ....   84
Dispersion correction           -0.034256058
FINAL SINGLE POINT ENERGY      -529.832485463062
Dispersion correction            ... done
Dispersion correction           -0.033882064
FINAL SINGLE POINT ENERGY      -529.838547126799
Dispersion correction            ... done
Dispersion correction           -0.033913907
FINAL SINGLE POINT ENERGY      -529.840279010306
Dispersion correction            ... done
FINAL SINGLE POINT ENERGY      -529.840899409616
Dispersion correction            ... done
Dispersion correction           -0.034078355
FINAL SINGLE POINT ENERGY      -529.841200693499
Dispersion correction            ... done
Dispersion correction           -0.034132982
FINAL SINGLE POINT ENERGY      -529.841477914770
Dispersion correction            ... done
                    ***********************HURRAY********************

CARTESIAN COORDINATES (ANGSTROEM)
---------------------------------
  C      1.589067   -0.721550   -0.117144
  N      0.877992   -1.848309   -0.245996
  N      1.038984    0.459624   -0.083395
  C      1.880508    1.589898    0.023526
  N      3.142012    1.717624    0.190592
  N     -1.898832    0.520491    0.088760
  C     -2.500324   -0.682466    0.080497
  O     -1.862785   -1.750955    0.119764
  C     -4.009276   -0.766155    0.032436
  C     -4.542201   -2.171353    0.076921
  C     -4.805738    0.309250   -0.052616
  H      2.684472   -0.855261   -0.067703
  H      1.359820   -2.721680   -0.077047
  H     -0.153696   -1.814163   -0.103231
  H      1.291423    2.518501   -0.048458
  H      3.614611    0.804994    0.262224
  H     -2.450524    1.359599   -0.016716
  H     -0.863662    0.578141    0.029306
  H     -4.082162   -2.782970   -0.714004
  H     -5.636383   -2.186470   -0.029599
  H     -4.259091   -2.658300    1.024541
  H     -4.425089    1.331982   -0.085300
  H     -5.892628    0.203030   -0.096659

 Multiplicity           Mult            ....    1
 Number of Electrons    NEL             ....   84
 Basis Dimension        Dim             ....  214

ORBITAL ENERGIES
----------------

  NO   OCC          E(Eh)            E(eV)
   0   2.0000     -19.111534      -520.0513
   1   2.0000     -14.350986      -390.5102
   2   2.0000     -14.339161      -390.1884
   3   2.0000     -14.310394      -389.4056
   4   2.0000     -14.292580      -388.9209
   5   2.0000     -10.291371      -280.0424
   6   2.0000     -10.273554      -279.5576
   7   2.0000     -10.237796      -278.5846
   8   2.0000     -10.209890      -277.8252
   9   2.0000     -10.200383      -277.5665
  10   2.0000     -10.184081      -277.1229
  11   2.0000      -1.034212       -28.1423
  12   2.0000      -0.962330       -26.1863
  13   2.0000      -0.904334       -24.6082
  14   2.0000      -0.898405       -24.4468
  15   2.0000      -0.835024       -22.7222
  16   2.0000      -0.805115       -21.9083
  17   2.0000      -0.692040       -18.8314
  18   2.0000      -0.655270       -17.8308
  19   2.0000      -0.631386       -17.1809
  20   2.0000      -0.580775       -15.8037
  21   2.0000      -0.557261       -15.1639
  22   2.0000      -0.550059       -14.9679
  23   2.0000      -0.523772       -14.2526
  24   2.0000      -0.494035       -13.4434
  25   2.0000      -0.482236       -13.1223
  26   2.0000      -0.457766       -12.4564
  27   2.0000      -0.442132       -12.0310
  28   2.0000      -0.429927       -11.6989
  29   2.0000      -0.413427       -11.2499
  30   2.0000      -0.404508       -11.0072
  31   2.0000      -0.399381       -10.8677
  32   2.0000      -0.387184       -10.5358
  33   2.0000      -0.374429       -10.1887
  34   2.0000      -0.371032       -10.0963
  35   2.0000      -0.323173        -8.7940
  36   2.0000      -0.290871        -7.9150
  37   2.0000      -0.275144        -7.4870
  38   2.0000      -0.262382        -7.1398
  39   2.0000      -0.261252        -7.1090
  40   2.0000      -0.245447        -6.6790
  41   2.0000      -0.231024        -6.2865
  42   0.0000      -0.038067        -1.0358
  43   0.0000      -0.022181        -0.6036
  44   0.0000       0.047995         1.3060
  45   0.0000       0.051026         1.3885
  46   0.0000       0.078939         2.1481

-------
TIMINGS
-------

Dispersion correction           -0.034121462
FINAL SINGLE POINT ENERGY      -529.841636818778

DIPOLE MOMENT
-------------
                                X             Y             Z
Electronic contribution:      5.72098       1.37297       0.00728
Nuclear contribution   :     -6.57442      -2.11870      -0.05734
                        -----------------------------------------
Total Dipole Moment    :     -0.85344      -0.74572      -0.05006
                        -----------------------------------------
Magnitude (a.u.)       :      1.13445
Magnitude (Debye)      :      2.88353

                             ****ORCA TERMINATED NORMALLY****
TOTAL RUN TIME: 0 days 0 hours 4 minutes 28 seconds 700 msec
