                         Program Version 4.0.1.2 - RELEASE -
|  1> %pal nprocs 6 end
|  2> %maxcore 1000
|  3> ! b3lyp TIGHTSCF nopop D3BJ
|  4> ! cc-pvdz def2/J RIJCOSX
|  5> ! Opt
|  6>
|  7> %geom
|  8> maxiter 60
|  9> TolE 1e-4
| 10> TolRMSG 2e-3
| 11> TolMaxG 3e-3
| 12> TolRMSD 2e-2
| 13> TolMaxD 3e-2
| 14> end
| 15>
| 16> *xyz 0 1
| 17> C 3.0719 -0.6068 -0.0007
| 18> C 1.6761 -0.727 -0.0021
| 19> N 0.9405 0.4072 -0.001
| 20> C 1.573 1.6063 0.0013
| 21> N 2.8858 1.8408 0.0029
| 22> C 3.5915 0.6958 0.0017
| 23> H 3.7193 -1.4749 -0.0015
| 24> H 1.1458 -1.6746 -0.004
| 25> H 0.9274 2.4783 0.002
| 26> H 4.67 0.8376 0.0028
| 27> *
| 28>
| 29>
| 30>                          ****END OF INPUT****
 Total Charge           Charge          ....    0
 Multiplicity           Mult            ....    1
 Number of Electrons    NEL             ....   42
Dispersion correction           -0.015342649
FINAL SINGLE POINT ENERGY      -264.195298489893
Dispersion correction            ... done
Dispersion correction           -0.015361937
FINAL SINGLE POINT ENERGY      -264.198827920421
Dispersion correction            ... done
Dispersion correction           -0.015367859
FINAL SINGLE POINT ENERGY      -264.199301295766
Dispersion correction            ... done
                    ***********************HURRAY********************

CARTESIAN COORDINATES (ANGSTROEM)
---------------------------------
  C      3.077093   -0.597139   -0.000684
  C      1.684593   -0.678088   -0.002018
  N      0.903537    0.410964   -0.001136
  C      1.544583    1.585175    0.001262
  N      2.869179    1.792825    0.002730
  C      3.624980    0.685867    0.001697
  H      3.709405   -1.486787   -0.001477
  H      1.167411   -1.644314   -0.003918
  H      0.909461    2.478061    0.002092
  H      4.711058    0.836135    0.002850

 Multiplicity           Mult            ....    1
 Number of Electrons    NEL             ....   42
 Basis Dimension        Dim             ....  104

ORBITAL ENERGIES
----------------

  NO   OCC          E(Eh)            E(eV)
   0   2.0000     -14.336882      -390.1264
   1   2.0000     -14.336792      -390.1239
   2   2.0000     -10.255243      -279.0594
   3   2.0000     -10.243183      -278.7312
   4   2.0000     -10.243151      -278.7303
   5   2.0000     -10.210777      -277.8494
   6   2.0000      -0.986948       -26.8562
   7   2.0000      -0.891427       -24.2570
   8   2.0000      -0.795281       -21.6407
   9   2.0000      -0.658396       -17.9159
  10   2.0000      -0.656643       -17.8682
  11   2.0000      -0.535981       -14.5848
  12   2.0000      -0.513892       -13.9837
  13   2.0000      -0.469336       -12.7713
  14   2.0000      -0.425965       -11.5911
  15   2.0000      -0.419063       -11.4033
  16   2.0000      -0.409562       -11.1447
  17   2.0000      -0.317905        -8.6506
  18   2.0000      -0.302053        -8.2193
  19   2.0000      -0.288954        -7.8628
  20   2.0000      -0.253237        -6.8909
  21   0.0000      -0.043110        -1.1731
  22   0.0000      -0.031815        -0.8657
  23   0.0000       0.064890         1.7658
  24   0.0000       0.104414         2.8412
  25   0.0000       0.110778         3.0144

-------
TIMINGS
-------

Dispersion correction           -0.015368377
FINAL SINGLE POINT ENERGY      -264.199362430349

DIPOLE MOMENT
-------------
                                X             Y             Z
Electronic contribution:     -0.80449       1.15070       0.00100
Nuclear contribution   :      1.28292      -1.83746      -0.00159
                        -----------------------------------------
Total Dipole Moment    :      0.47843      -0.68676      -0.00059
                        -----------------------------------------
Magnitude (a.u.)       :      0.83698
Magnitude (Debye)      :      2.12744

                             ****ORCA TERMINATED NORMALLY****
TOTAL RUN TIME: 0 days 0 hours 0 minutes 46 seconds 29 msec
