                         Program Version 4.0.1.2 - RELEASE -
|  1> %pal nprocs 6 end
|  2> %maxcore 1000
|  3> ! b3lyp TIGHTSCF nopop D3BJ
|  4> ! cc-pvdz def2/J RIJCOSX
|  5> ! Opt
|  6>
|  7> %geom
|  8> maxiter 60
|  9> TolE 1e-4
| 10> TolRMSG 2e-3
| 11> TolMaxG 3e-3
| 12> TolRMSD 2e-2
| 13> TolMaxD 3e-2
| 14> end
| 15>
| 16> *xyz 0 1
| 17> C 1.6268 -0.6701 -0.0543
| 18> N 0.9754 -1.8597 -0.148
| 19> N 1.0312 0.468 -0.0994
| 20> C 1.712 1.6487 -0.0034
| 21> N 2.9816 1.798 0.1375
| 22> N -1.9217 0.341 -0.1348
| 23> C -2.4602 -0.8684 0.1624
| 24> O -1.7824 -1.8659 0.3667
| 25> H 2.7137 -0.8157 0.0543
| 26> H 1.3816 -2.6571 0.3259
| 27> H -0.0416 -1.8228 -0.0129
| 28> H 1.0893 2.5586 -0.0515
| 29> H 3.478 0.9136 0.1682
| 30> H -2.4784 1.1624 -0.3189
| 31> H -0.9056 0.4221 -0.1911
| 32> H -3.5613 -0.8584 0.1971
| 33> *
| 34>
| 35>
| 36>                          ****END OF INPUT****
 Total Charge           Charge          ....    0
 Multiplicity           Mult            ....    1
 Number of Electrons    NEL             ....   62
Dispersion correction           -0.021017269
FINAL SINGLE POINT ENERGY      -413.176296206468
Dispersion correction            ... done
Dispersion correction           -0.020687718
FINAL SINGLE POINT ENERGY      -413.181677631630
Dispersion correction            ... done
Dispersion correction           -0.020727827
FINAL SINGLE POINT ENERGY      -413.183265781639
Dispersion correction            ... done
FINAL SINGLE POINT ENERGY      -413.183909645168
Dispersion correction            ... done
Dispersion correction           -0.020868762
FINAL SINGLE POINT ENERGY      -413.184224028126
Dispersion correction            ... done
Dispersion correction           -0.020913414
FINAL SINGLE POINT ENERGY      -413.184532977169
Dispersion correction            ... done
                    ***********************HURRAY********************

CARTESIAN COORDINATES (ANGSTROEM)
---------------------------------
  C      1.597174   -0.693975    0.020057
  N      0.952653   -1.866999   -0.031064
  N      0.990939    0.452796   -0.101013
  C      1.757479    1.639542   -0.058848
  N      3.011946    1.855637    0.060229
  N     -1.906373    0.358158   -0.044343
  C     -2.469567   -0.853176    0.084213
  O     -1.858984   -1.923141    0.171194
  H      2.690171   -0.763794    0.156834
  H      1.466010   -2.693075    0.252450
  H     -0.084388   -1.887831    0.044980
  H      1.104670    2.521961   -0.148984
  H      3.545264    0.978188    0.138255
  H     -2.504358    1.170455   -0.130107
  H     -0.870502    0.442230   -0.133087
  H     -3.583734   -0.842675    0.117035

 Multiplicity           Mult            ....    1
 Number of Electrons    NEL             ....   62
 Basis Dimension        Dim             ....  152

ORBITAL ENERGIES
----------------

  NO   OCC          E(Eh)            E(eV)
   0   2.0000     -19.115852      -520.1688
   1   2.0000     -14.357062      -390.6755
   2   2.0000     -14.344858      -390.3434
   3   2.0000     -14.314923      -389.5289
   4   2.0000     -14.296394      -389.0247
   5   2.0000     -10.290794      -280.0268
   6   2.0000     -10.278565      -279.6940
   7   2.0000     -10.241632      -278.6890
   8   2.0000      -1.033995       -28.1364
   9   2.0000      -0.966932       -26.3116
  10   2.0000      -0.908321       -24.7167
  11   2.0000      -0.901021       -24.5180
  12   2.0000      -0.839580       -22.8461
  13   2.0000      -0.660043       -17.9607
  14   2.0000      -0.616650       -16.7799
  15   2.0000      -0.584322       -15.9002
  16   2.0000      -0.555065       -15.1041
  17   2.0000      -0.545115       -14.8333
  18   2.0000      -0.497776       -13.5452
  19   2.0000      -0.485695       -13.2164
  20   2.0000      -0.451924       -12.2975
  21   2.0000      -0.417525       -11.3614
  22   2.0000      -0.407970       -11.1014
  23   2.0000      -0.404778       -11.0146
  24   2.0000      -0.399837       -10.8801
  25   2.0000      -0.327790        -8.9196
  26   2.0000      -0.295693        -8.0462
  27   2.0000      -0.270163        -7.3515
  28   2.0000      -0.263361        -7.1664
  29   2.0000      -0.248596        -6.7646
  30   2.0000      -0.235539        -6.4093
  31   0.0000      -0.026875        -0.7313
  32   0.0000       0.023776         0.6470
  33   0.0000       0.046023         1.2523
  34   0.0000       0.057996         1.5781
  35   0.0000       0.074970         2.0400

-------
TIMINGS
-------

Dispersion correction           -0.020906123
FINAL SINGLE POINT ENERGY      -413.184653657245

DIPOLE MOMENT
-------------
                                X             Y             Z
Electronic contribution:     -0.48155      -0.77067      -0.06061
Nuclear contribution   :     -0.00472       0.23709       0.15379
                        -----------------------------------------
Total Dipole Moment    :     -0.48627      -0.53358       0.09319
                        -----------------------------------------
Magnitude (a.u.)       :      0.72791
Magnitude (Debye)      :      1.85019

                             ****ORCA TERMINATED NORMALLY****
TOTAL RUN TIME: 0 days 0 hours 2 minutes 26 seconds 843 msec
