                         Program Version 4.0.1.2 - RELEASE -
|  1> %pal nprocs 6 end
|  2> %maxcore 1000
|  3> ! b3lyp TIGHTSCF nopop D3BJ
|  4> ! cc-pvdz def2/J RIJCOSX
|  5> ! Opt
|  6>
|  7> %geom
|  8> maxiter 60
|  9> TolE 1e-4
| 10> TolRMSG 2e-3
| 11> TolMaxG 3e-3
| 12> TolRMSD 2e-2
| 13> TolMaxD 3e-2
| 14> end
| 15>
| 16> *xyz 0 1
| 17> C 3.0599 -0.7334 0.0669
| 18> C 1.7259 -0.6648 -0.0723
| 19> N 1.052 -1.8467 -0.2666
| 20> N 0.9818 0.4878 -0.0376
| 21> C 1.5248 1.6441 0.1384
| 22> C -2.4722 1.5949 -0.2326
| 23> O -1.9132 2.6533 -0.4852
| 24> N -1.8207 0.4103 -0.0397
| 25> C -2.4149 -0.785 0.2429
| 26> O -1.7959 -1.8289 0.4101
| 27> H 3.5722 -1.689 0.0107
| 28> H 3.7024 0.1205 0.2223
| 29> H 1.5016 -2.6523 0.1516
| 30> H 0.0743 -1.7832 0.0285
| 31> H 2.5973 1.8467 0.2733
| 32> H 0.8733 2.5338 0.1569
| 33> H -3.5673 1.5191 -0.1356
| 34> H -0.8035 0.4128 -0.1259
| 35> H -3.5131 -0.7324 0.311
| 36> *
| 37>
| 38>
| 39>                          ****END OF INPUT****
 Total Charge           Charge          ....    0
 Multiplicity           Mult            ....    1
 Number of Electrons    NEL             ....   76
Dispersion correction           -0.028531887
FINAL SINGLE POINT ENERGY      -510.396465273876
Dispersion correction            ... done
Dispersion correction           -0.028039266
FINAL SINGLE POINT ENERGY      -510.404765820480
Dispersion correction            ... done
Dispersion correction           -0.028108978
FINAL SINGLE POINT ENERGY      -510.406740910927
Dispersion correction            ... done
FINAL SINGLE POINT ENERGY      -510.407224414664
FINAL SINGLE POINT ENERGY      -510.407704861004
FINAL SINGLE POINT ENERGY      -510.408036135221
FINAL SINGLE POINT ENERGY      -510.408716230606
FINAL SINGLE POINT ENERGY      -510.409325137577
FINAL SINGLE POINT ENERGY      -510.409810238617
FINAL SINGLE POINT ENERGY      -510.408405698959
FINAL SINGLE POINT ENERGY      -510.409948270539
FINAL SINGLE POINT ENERGY      -510.410026344852
FINAL SINGLE POINT ENERGY      -510.410179009765
Dispersion correction            ... done
Dispersion correction           -0.028085462
FINAL SINGLE POINT ENERGY      -510.410257149758
Dispersion correction            ... done
Dispersion correction           -0.028098595
FINAL SINGLE POINT ENERGY      -510.410320969718
Dispersion correction            ... done
                    ***********************HURRAY********************

CARTESIAN COORDINATES (ANGSTROEM)
---------------------------------
  C      3.056145   -0.711182    0.551294
  C      1.817742   -0.723149    0.008532
  N      1.162282   -1.824932   -0.520491
  N      1.007596    0.445109   -0.054433
  C      1.492862    1.577498   -0.373768
  C     -2.470507    1.658151    0.093929
  O     -1.908735    2.727752   -0.010682
  N     -1.809633    0.446734    0.129540
  C     -2.449774   -0.764955    0.185274
  O     -1.876286   -1.838972    0.137570
  H      3.626984   -1.635178    0.664485
  H      3.501706    0.212863    0.917001
  H      1.590336   -2.705740   -0.260833
  H      0.152128   -1.839390   -0.351925
  H      2.547631    1.715781   -0.669917
  H      0.819125    2.444568   -0.356681
  H     -3.579542    1.557978    0.168034
  H     -0.757731    0.450775    0.081171
  H     -3.557629   -0.686111    0.279001

 Multiplicity           Mult            ....    1
 Number of Electrons    NEL             ....   76
 Basis Dimension        Dim             ....  185

ORBITAL ENERGIES
----------------

  NO   OCC          E(Eh)            E(eV)
   0   2.0000     -19.144790      -520.9562
   1   2.0000     -19.140314      -520.8344
   2   2.0000     -14.374812      -391.1585
   3   2.0000     -14.357702      -390.6929
   4   2.0000     -14.323215      -389.7545
   5   2.0000     -10.315014      -280.6858
   6   2.0000     -10.311417      -280.5879
   7   2.0000     -10.250584      -278.9326
   8   2.0000     -10.249280      -278.8971
   9   2.0000     -10.163944      -276.5750
  10   2.0000      -1.071118       -29.1466
  11   2.0000      -1.055996       -28.7351
  12   2.0000      -0.964031       -26.2326
  13   2.0000      -0.940356       -25.5884
  14   2.0000      -0.886651       -24.1270
  15   2.0000      -0.730269       -19.8716
  16   2.0000      -0.665702       -18.1147
  17   2.0000      -0.659789       -17.9538
  18   2.0000      -0.640985       -17.4421
  19   2.0000      -0.553288       -15.0557
  20   2.0000      -0.537100       -14.6152
  21   2.0000      -0.518747       -14.1158
  22   2.0000      -0.499860       -13.6019
  23   2.0000      -0.485446       -13.2097
  24   2.0000      -0.457294       -12.4436
  25   2.0000      -0.452203       -12.3051
  26   2.0000      -0.442219       -12.0334
  27   2.0000      -0.439648       -11.9634
  28   2.0000      -0.426230       -11.5983
  29   2.0000      -0.394806       -10.7432
  30   2.0000      -0.393779       -10.7153
  31   2.0000      -0.374993       -10.2041
  32   2.0000      -0.321230        -8.7411
  33   2.0000      -0.302290        -8.2257
  34   2.0000      -0.291135        -7.9222
  35   2.0000      -0.280865        -7.6427
  36   2.0000      -0.268899        -7.3171
  37   2.0000      -0.205285        -5.5861
  38   0.0000      -0.047128        -1.2824
  39   0.0000      -0.036458        -0.9921
  40   0.0000       0.028718         0.7815
  41   0.0000       0.056669         1.5420
  42   0.0000       0.066735         1.8159

-------
TIMINGS
-------

Dispersion correction           -0.028089989
FINAL SINGLE POINT ENERGY      -510.410334951968

DIPOLE MOMENT
-------------
                                X             Y             Z
Electronic contribution:     -6.18814       1.20040      -0.23475
Nuclear contribution   :      6.02271      -1.22398       0.33073
                        -----------------------------------------
Total Dipole Moment    :     -0.16544      -0.02358       0.09598
                        -----------------------------------------
Magnitude (a.u.)       :      0.19271
Magnitude (Debye)      :      0.48984

                             ****ORCA TERMINATED NORMALLY****
TOTAL RUN TIME: 0 days 0 hours 7 minutes 37 seconds 958 msec
