                         Program Version 4.0.1.2 - RELEASE -
|  1> %pal nprocs 6 end
|  2> %maxcore 1000
|  3> ! b3lyp TIGHTSCF nopop D3BJ
|  4> ! cc-pvdz def2/J RIJCOSX
|  5> ! Opt
|  6>
|  7> %geom
|  8> maxiter 60
|  9> TolE 1e-4
| 10> TolRMSG 2e-3
| 11> TolMaxG 3e-3
| 12> TolRMSD 2e-2
| 13> TolMaxD 3e-2
| 14> end
| 15>
| 16> *xyz 0 1
| 17> C 1.6537 -0.7082 -0.0039
| 18> N 1.0433 -1.9234 -0.0109
| 19> N 0.9903 0.3892 -0.0066
| 20> C 1.5913 1.6136 -0.0002
| 21> N 2.8571 1.8452 0.0091
| 22> H 2.752 -0.7996 0.0038
| 23> H 1.5198 -2.685 0.4575
| 24> H 0.0484 -1.8784 0.1858
| 25> H 0.9065 2.479 0.0008
| 26> H 3.4062 0.9925 0.0007
| 27> *
| 28>
| 29>
| 30>                          ****END OF INPUT****
 Total Charge           Charge          ....    0
 Multiplicity           Mult            ....    1
 Number of Electrons    NEL             ....   38
Dispersion correction           -0.011548778
FINAL SINGLE POINT ENERGY      -243.327658625064
Dispersion correction            ... done
Dispersion correction           -0.011400457
FINAL SINGLE POINT ENERGY      -243.331766727681
Dispersion correction            ... done
Dispersion correction           -0.011409166
FINAL SINGLE POINT ENERGY      -243.332555028410
Dispersion correction            ... done
FINAL SINGLE POINT ENERGY      -243.332882883540
FINAL SINGLE POINT ENERGY      -243.333314361818
FINAL SINGLE POINT ENERGY      -243.334184808197
FINAL SINGLE POINT ENERGY      -243.335076584361
FINAL SINGLE POINT ENERGY      -243.335672015215
FINAL SINGLE POINT ENERGY      -243.336137766798
Dispersion correction            ... done
Dispersion correction           -0.011442895
FINAL SINGLE POINT ENERGY      -243.336377265365
Dispersion correction            ... done
Dispersion correction           -0.011431127
FINAL SINGLE POINT ENERGY      -243.336538574229
Dispersion correction            ... done
                    ***********************HURRAY********************

CARTESIAN COORDINATES (ANGSTROEM)
---------------------------------
  C      1.587123   -0.688357    0.259547
  N      1.078425   -1.926068    0.029485
  N      0.990263    0.388769   -0.108338
  C      1.676571    1.600976    0.037953
  N      2.885009    1.894082   -0.264877
  H      2.560380   -0.689895    0.783962
  H      1.451702   -2.729710    0.514454
  H      0.153015   -1.997160   -0.378823
  H      1.036168    2.409028    0.426524
  H      3.349943    1.063235   -0.663786

 Multiplicity           Mult            ....    1
 Number of Electrons    NEL             ....   38
 Basis Dimension        Dim             ....   95

ORBITAL ENERGIES
----------------

  NO   OCC          E(Eh)            E(eV)
   0   2.0000     -14.365658      -390.9094
   1   2.0000     -14.309178      -389.3725
   2   2.0000     -14.291349      -388.8874
   3   2.0000     -10.274087      -279.5721
   4   2.0000     -10.234875      -278.5051
   5   2.0000      -0.967460       -26.3259
   6   2.0000      -0.908688       -24.7267
   7   2.0000      -0.837303       -22.7842
   8   2.0000      -0.656292       -17.8586
   9   2.0000      -0.589525       -16.0418
  10   2.0000      -0.551690       -15.0122
  11   2.0000      -0.487858       -13.2753
  12   2.0000      -0.471647       -12.8342
  13   2.0000      -0.420363       -11.4387
  14   2.0000      -0.378152       -10.2900
  15   2.0000      -0.331108        -9.0099
  16   2.0000      -0.282789        -7.6951
  17   2.0000      -0.239889        -6.5277
  18   2.0000      -0.236961        -6.4480
  19   0.0000      -0.007615        -0.2072
  20   0.0000       0.043148         1.1741
  21   0.0000       0.060175         1.6374
  22   0.0000       0.071672         1.9503
  23   0.0000       0.109396         2.9768

-------
TIMINGS
-------

Dispersion correction           -0.011427487
FINAL SINGLE POINT ENERGY      -243.336556776072

DIPOLE MOMENT
-------------
                                X             Y             Z
Electronic contribution:     -0.60137       0.85794      -0.30468
Nuclear contribution   :      0.28795      -2.74938       0.67491
                        -----------------------------------------
Total Dipole Moment    :     -0.31342      -1.89144       0.37024
                        -----------------------------------------
Magnitude (a.u.)       :      1.95266
Magnitude (Debye)      :      4.96326

                             ****ORCA TERMINATED NORMALLY****
TOTAL RUN TIME: 0 days 0 hours 1 minutes 52 seconds 207 msec
