                         Program Version 4.0.1.2 - RELEASE -
|  1> %pal nprocs 6 end
|  2> %maxcore 1000
|  3> ! b3lyp TIGHTSCF nopop D3BJ
|  4> ! cc-pvdz def2/J RIJCOSX
|  5> ! Opt
|  6>
|  7> %geom
|  8> maxiter 60
|  9> TolE 1e-4
| 10> TolRMSG 2e-3
| 11> TolMaxG 3e-3
| 12> TolRMSD 2e-2
| 13> TolMaxD 3e-2
| 14> end
| 15>
| 16> *xyz 0 1
| 17> C 1.6184 -0.7315 -0.0026
| 18> N 0.971 -1.8835 -0.2717
| 19> N 1.0418 0.4168 0.0484
| 20> N -1.7832 0.408 -0.0168
| 21> C -2.4369 -0.7777 0.0379
| 22> O -1.813 -1.8341 0.1006
| 23> C -3.9346 -0.751 0.0202
| 24> C -4.5794 -2.107 0.0847
| 25> C -4.6706 0.3717 -0.0472
| 26> H 2.7028 -0.8547 0.162
| 27> H 1.3231 -2.7303 0.1557
| 28> H -0.0523 -1.8289 -0.2041
| 29> H 1.7536 1.1294 0.2552
| 30> H -2.2153 1.3109 -0.1013
| 31> H -0.7565 0.3955 -0.0187
| 32> H -4.273 -2.719 -0.7703
| 33> H -5.6728 -2.0432 0.0685
| 34> H -4.2938 -2.6246 1.0066
| 35> H -4.2484 1.3668 -0.0937
| 36> H -5.7559 0.3208 -0.0567
| 37> *
| 38>
| 39>
| 40>                          ****END OF INPUT****
 Total Charge           Charge          ....    0
 Multiplicity           Mult            ....    1
 Number of Electrons    NEL             ....   70
Dispersion correction           -0.027906753
FINAL SINGLE POINT ENERGY      -436.432608873599
Dispersion correction            ... done
Dispersion correction           -0.027545490
FINAL SINGLE POINT ENERGY      -436.435536695020
Dispersion correction            ... done
Dispersion correction           -0.027524393
FINAL SINGLE POINT ENERGY      -436.436385885448
Dispersion correction            ... done
FINAL SINGLE POINT ENERGY      -436.436811194941
FINAL SINGLE POINT ENERGY      -436.437206503102
FINAL SINGLE POINT ENERGY      -436.437444703888
FINAL SINGLE POINT ENERGY      -436.437485727456
Dispersion correction            ... done
Dispersion correction           -0.027642051
FINAL SINGLE POINT ENERGY      -436.437958997472
Dispersion correction            ... done
Dispersion correction           -0.027618031
FINAL SINGLE POINT ENERGY      -436.438052285874
Dispersion correction            ... done
                    ***********************HURRAY********************

CARTESIAN COORDINATES (ANGSTROEM)
---------------------------------
  C      1.644340   -0.770800    0.018673
  N      0.962799   -1.941611    0.052011
  N      1.067504    0.372324   -0.144527
  N     -1.822353    0.458429   -0.104217
  C     -2.455843   -0.717737    0.086229
  O     -1.859267   -1.783988    0.312275
  C     -3.965198   -0.730649    0.040620
  C     -4.566211   -2.097556   -0.136560
  C     -4.696768    0.380212    0.213727
  H      2.740816   -0.882042    0.108756
  H      1.439038   -2.739428    0.452445
  H     -0.061943   -1.890403    0.188086
  H      1.762159    1.120533   -0.187834
  H     -2.344682    1.240784   -0.476895
  H     -0.780104    0.493493   -0.128974
  H     -4.215120   -2.560141   -1.073195
  H     -5.664917   -2.054495   -0.141717
  H     -4.228070   -2.765431    0.672172
  H     -4.241530    1.353672    0.407668
  H     -5.789651    0.349232    0.197955

 Multiplicity           Mult            ....    1
 Number of Electrons    NEL             ....   70
 Basis Dimension        Dim             ....  181

ORBITAL ENERGIES
----------------

  NO   OCC          E(Eh)            E(eV)
   0   2.0000     -19.097750      -519.6762
   1   2.0000     -14.323148      -389.7527
   2   2.0000     -14.320938      -389.6925
   3   2.0000     -14.288233      -388.8026
   4   2.0000     -10.276877      -279.6480
   5   2.0000     -10.250193      -278.9219
   6   2.0000     -10.199152      -277.5330
   7   2.0000     -10.188550      -277.2445
   8   2.0000     -10.177160      -276.9346
   9   2.0000      -1.019220       -27.7344
  10   2.0000      -0.927572       -25.2405
  11   2.0000      -0.884082       -24.0571
  12   2.0000      -0.835602       -22.7379
  13   2.0000      -0.794326       -21.6147
  14   2.0000      -0.683521       -18.5995
  15   2.0000      -0.619700       -16.8629
  16   2.0000      -0.591113       -16.0850
  17   2.0000      -0.541463       -14.7339
  18   2.0000      -0.536832       -14.6079
  19   2.0000      -0.507621       -13.8131
  20   2.0000      -0.476620       -12.9695
  21   2.0000      -0.444071       -12.0838
  22   2.0000      -0.439064       -11.9475
  23   2.0000      -0.431088       -11.7305
  24   2.0000      -0.415456       -11.3051
  25   2.0000      -0.399948       -10.8831
  26   2.0000      -0.377181       -10.2636
  27   2.0000      -0.365635        -9.9494
  28   2.0000      -0.360577        -9.8118
  29   2.0000      -0.359209        -9.7746
  30   2.0000      -0.272500        -7.4151
  31   2.0000      -0.261639        -7.1195
  32   2.0000      -0.250831        -6.8254
  33   2.0000      -0.242974        -6.6117
  34   2.0000      -0.226560        -6.1650
  35   0.0000      -0.024228        -0.6593
  36   0.0000       0.039671         1.0795
  37   0.0000       0.059806         1.6274
  38   0.0000       0.068008         1.8506
  39   0.0000       0.089457         2.4343

-------
TIMINGS
-------

Dispersion correction           -0.027620850
FINAL SINGLE POINT ENERGY      -436.438115729624

DIPOLE MOMENT
-------------
                                X             Y             Z
Electronic contribution:      3.02012       0.24935       0.36250
Nuclear contribution   :     -2.69618       0.14534      -0.37454
                        -----------------------------------------
Total Dipole Moment    :      0.32394       0.39469      -0.01204
                        -----------------------------------------
Magnitude (a.u.)       :      0.51075
Magnitude (Debye)      :      1.29822

                             ****ORCA TERMINATED NORMALLY****
TOTAL RUN TIME: 0 days 0 hours 5 minutes 0 seconds 32 msec
