                         Program Version 4.0.1.2 - RELEASE -
|  1> %pal nprocs 6 end
|  2> %maxcore 1000
|  3> ! b3lyp TIGHTSCF nopop D3BJ
|  4> ! cc-pvdz def2/J RIJCOSX
|  5> ! Opt
|  6>
|  7> %geom
|  8> maxiter 60
|  9> TolE 1e-4
| 10> TolRMSG 2e-3
| 11> TolMaxG 3e-3
| 12> TolRMSD 2e-2
| 13> TolMaxD 3e-2
| 14> end
| 15>
| 16> *xyz 0 1
| 17> C 5.2546 -1.1978 0.0038
| 18> N 3.9942 -1.4688 0.0006
| 19> C 3.1376 -0.3852 -0.0024
| 20> C 1.7886 -0.534 -0.0061
| 21> N 1.2894 -1.8257 -0.0072
| 22> N 0.8592 0.4773 -0.0079
| 23> C 1.1895 1.7199 -0.0073
| 24> H 5.6744 -0.1765 0.0038
| 25> H 5.9831 -2.0246 0.0054
| 26> H 3.5832 0.6019 -0.0064
| 27> H 2.0175 -2.4747 0.2885
| 28> H 0.4469 -1.8629 0.5539
| 29> H 2.2132 2.1236 -0.0062
| 30> H 0.3865 2.4751 -0.0097
| 31> *
| 32>
| 33>
| 34>                          ****END OF INPUT****
 Total Charge           Charge          ....    0
 Multiplicity           Mult            ....    1
 Number of Electrons    NEL             ....   52
Dispersion correction           -0.019577924
FINAL SINGLE POINT ENERGY      -320.667589014753
Dispersion correction            ... done
Dispersion correction           -0.019402106
FINAL SINGLE POINT ENERGY      -320.672150396604
Dispersion correction            ... done
Dispersion correction           -0.019391876
FINAL SINGLE POINT ENERGY      -320.673151398747
Dispersion correction            ... done
FINAL SINGLE POINT ENERGY      -320.673358560395
FINAL SINGLE POINT ENERGY      -320.673529716266
FINAL SINGLE POINT ENERGY      -320.674239698948
FINAL SINGLE POINT ENERGY      -320.674738334355
FINAL SINGLE POINT ENERGY      -320.671948999742
FINAL SINGLE POINT ENERGY      -320.675222152291
FINAL SINGLE POINT ENERGY      -320.675592993347
FINAL SINGLE POINT ENERGY      -320.676467990130
Dispersion correction            ... done
Dispersion correction           -0.019432337
FINAL SINGLE POINT ENERGY      -320.676926045465
Dispersion correction            ... done
Dispersion correction           -0.019426298
FINAL SINGLE POINT ENERGY      -320.677051191168
Dispersion correction            ... done
                    ***********************HURRAY********************

CARTESIAN COORDINATES (ANGSTROEM)
---------------------------------
  C      5.324737   -1.248618    0.001630
  N      4.049807   -1.382936    0.036933
  C      3.228370   -0.281366    0.166861
  C      1.869921   -0.483000    0.198584
  N      1.308023   -1.716072    0.034259
  N      0.951533    0.540040    0.474300
  C      1.089496    1.675645   -0.089366
  H      5.832015   -0.266261    0.052916
  H      5.955075   -2.141588   -0.083135
  H      3.638145    0.723088    0.333008
  H      1.946842   -2.501760    0.010220
  H      0.347733   -1.850841    0.316517
  H      1.864764    1.890712   -0.846217
  H      0.411441    2.490557    0.196291

 Multiplicity           Mult            ....    1
 Number of Electrons    NEL             ....   52
 Basis Dimension        Dim             ....  133

ORBITAL ENERGIES
----------------

  NO   OCC          E(Eh)            E(eV)
   0   2.0000     -14.344589      -390.3361
   1   2.0000     -14.332578      -390.0093
   2   2.0000     -14.321853      -389.7174
   3   2.0000     -10.250336      -278.9258
   4   2.0000     -10.241722      -278.6914
   5   2.0000     -10.204334      -277.6740
   6   2.0000     -10.184148      -277.1248
   7   2.0000      -0.963650       -26.2223
   8   2.0000      -0.911359       -24.7993
   9   2.0000      -0.885106       -24.0849
  10   2.0000      -0.727857       -19.8060
  11   2.0000      -0.666068       -18.1246
  12   2.0000      -0.585449       -15.9309
  13   2.0000      -0.547735       -14.9046
  14   2.0000      -0.533073       -14.5057
  15   2.0000      -0.496189       -13.5020
  16   2.0000      -0.461655       -12.5623
  17   2.0000      -0.447069       -12.1654
  18   2.0000      -0.441869       -12.0239
  19   2.0000      -0.395955       -10.7745
  20   2.0000      -0.380930       -10.3656
  21   2.0000      -0.340946        -9.2776
  22   2.0000      -0.311523        -8.4770
  23   2.0000      -0.268158        -7.2969
  24   2.0000      -0.247816        -6.7434
  25   2.0000      -0.185273        -5.0415
  26   0.0000      -0.047107        -1.2819
  27   0.0000       0.008605         0.2342
  28   0.0000       0.077204         2.1008
  29   0.0000       0.083368         2.2686
  30   0.0000       0.095529         2.5995

-------
TIMINGS
-------

Dispersion correction           -0.019419746
FINAL SINGLE POINT ENERGY      -320.677177227049

DIPOLE MOMENT
-------------
                                X             Y             Z
Electronic contribution:     -2.35645      -0.96943       0.62250
Nuclear contribution   :      2.06361       1.24983      -0.75881
                        -----------------------------------------
Total Dipole Moment    :     -0.29285       0.28040      -0.13632
                        -----------------------------------------
Magnitude (a.u.)       :      0.42774
Magnitude (Debye)      :      1.08724

                             ****ORCA TERMINATED NORMALLY****
TOTAL RUN TIME: 0 days 0 hours 2 minutes 57 seconds 626 msec
