                         Program Version 4.0.1.2 - RELEASE -
|  1> %pal nprocs 6 end
|  2> %maxcore 1000
|  3> ! b3lyp TIGHTSCF nopop D3BJ
|  4> ! cc-pvdz def2/J RIJCOSX
|  5> ! Opt
|  6>
|  7> %geom
|  8> maxiter 60
|  9> TolE 1e-4
| 10> TolRMSG 2e-3
| 11> TolMaxG 3e-3
| 12> TolRMSD 2e-2
| 13> TolMaxD 3e-2
| 14> end
| 15>
| 16> *xyz 0 1
| 17> N -1.7454 0.3732 0.0399
| 18> C -2.4383 -0.7911 0.0157
| 19> O -1.8702 -1.8758 -0.001
| 20> C -3.9186 -0.7109 0.0112
| 21> C -4.6695 0.3981 0.0269
| 22> H -2.1675 1.2869 0.0559
| 23> H -0.7364 0.3085 0.0438
| 24> H -4.3989 -1.6859 -0.0072
| 25> H -4.261 1.4 0.0452
| 26> H -5.7526 0.3142 0.0212
| 27> *
| 28>
| 29>
| 30>                          ****END OF INPUT****
 Total Charge           Charge          ....    0
 Multiplicity           Mult            ....    1
 Number of Electrons    NEL             ....   38
Dispersion correction           -0.011748031
FINAL SINGLE POINT ENERGY      -247.178339767845
Dispersion correction            ... done
Dispersion correction           -0.011708215
FINAL SINGLE POINT ENERGY      -247.178774198436
Dispersion correction            ... done
                    ***********************HURRAY********************

CARTESIAN COORDINATES (ANGSTROEM)
---------------------------------
  N     -1.732693    0.378790    0.043796
  C     -2.433855   -0.794239    0.012220
  O     -1.872810   -1.883053   -0.016243
  C     -3.927131   -0.712447    0.015384
  C     -4.678975    0.393229    0.023241
  H     -2.163291    1.291475    0.071785
  H     -0.722149    0.315552    0.044168
  H     -4.398461   -1.699224    0.007002
  H     -4.258402    1.404041    0.027857
  H     -5.770634    0.323077    0.022390

 Multiplicity           Mult            ....    1
 Number of Electrons    NEL             ....   38
 Basis Dimension        Dim             ....   95

ORBITAL ENERGIES
----------------

  NO   OCC          E(Eh)            E(eV)
   0   2.0000     -19.097833      -519.6785
   1   2.0000     -14.346952      -390.4004
   2   2.0000     -10.284658      -279.8598
   3   2.0000     -10.208755      -277.7943
   4   2.0000     -10.202930      -277.6358
   5   2.0000      -1.026263       -27.9260
   6   2.0000      -0.898372       -24.4460
   7   2.0000      -0.785245       -21.3676
   8   2.0000      -0.640079       -17.4174
   9   2.0000      -0.571416       -15.5490
  10   2.0000      -0.540674       -14.7125
  11   2.0000      -0.469973       -12.7886
  12   2.0000      -0.456579       -12.4241
  13   2.0000      -0.407321       -11.0838
  14   2.0000      -0.400723       -10.9042
  15   2.0000      -0.376588       -10.2475
  16   2.0000      -0.283297        -7.7089
  17   2.0000      -0.262559        -7.1446
  18   2.0000      -0.247519        -6.7353
  19   0.0000      -0.039774        -1.0823
  20   0.0000       0.041184         1.1207
  21   0.0000       0.084107         2.2887
  22   0.0000       0.094610         2.5745
  23   0.0000       0.098666         2.6848

-------
TIMINGS
-------

Dispersion correction           -0.011702387
FINAL SINGLE POINT ENERGY      -247.178836179022

DIPOLE MOMENT
-------------
                                X             Y             Z
Electronic contribution:      2.36793      -2.49969      -0.04693
Nuclear contribution   :     -2.73962       3.93045       0.08701
                        -----------------------------------------
Total Dipole Moment    :     -0.37169       1.43076       0.04008
                        -----------------------------------------
Magnitude (a.u.)       :      1.47879
Magnitude (Debye)      :      3.75879

                             ****ORCA TERMINATED NORMALLY****
TOTAL RUN TIME: 0 days 0 hours 0 minutes 30 seconds 463 msec
