                         Program Version 4.0.1.2 - RELEASE -
|  1> %pal nprocs 6 end
|  2> %maxcore 1000
|  3> ! b3lyp TIGHTSCF nopop D3BJ
|  4> ! cc-pvdz def2/J RIJCOSX
|  5> ! Opt
|  6>
|  7> %geom
|  8> maxiter 60
|  9> TolE 1e-4
| 10> TolRMSG 2e-3
| 11> TolMaxG 3e-3
| 12> TolRMSD 2e-2
| 13> TolMaxD 3e-2
| 14> end
| 15>
| 16> *xyz 0 1
| 17> C 3.0939 -0.5406 0.0495
| 18> C 1.6122 -0.6344 -0.0675
| 19> N 1.012 -1.8555 -0.1107
| 20> N 0.8769 0.4365 -0.1233
| 21> C 3.7145 0.6396 0.1007
| 22> N -1.8767 0.3813 -0.0179
| 23> C -2.4581 -0.8311 0.0297
| 24> O -1.8461 -1.8927 0.1029
| 25> H 3.6401 -1.4807 0.0478
| 26> H 1.4582 -2.6289 0.3924
| 27> H 0.0012 -1.8493 -0.0038
| 28> H 1.4857 1.2867 -0.1012
| 29> H 4.7594 0.6028 0.2068
| 30> H 3.2324 1.6289 0.0782
| 31> H -2.3723 1.2534 -0.097
| 32> H -0.8482 0.4117 -0.0781
| 33> H -3.5703 -0.7909 0.0367
| 34> *
| 35>
| 36>
| 37>                          ****END OF INPUT****
 Total Charge           Charge          ....    0
 Multiplicity           Mult            ....    1
 Number of Electrons    NEL             ....   62
Dispersion correction           -0.022903741
FINAL SINGLE POINT ENERGY      -397.130074483262
Dispersion correction            ... done
Dispersion correction           -0.022486718
FINAL SINGLE POINT ENERGY      -397.138052754823
Dispersion correction            ... done
Dispersion correction           -0.022463461
FINAL SINGLE POINT ENERGY      -397.139387376228
Dispersion correction            ... done
FINAL SINGLE POINT ENERGY      -397.139981652971
Dispersion correction            ... done
Dispersion correction           -0.022485606
FINAL SINGLE POINT ENERGY      -397.140135724232
Dispersion correction            ... done
Dispersion correction           -0.022514498
FINAL SINGLE POINT ENERGY      -397.140257127360
Dispersion correction            ... done
                    ***********************HURRAY********************

CARTESIAN COORDINATES (ANGSTROEM)
---------------------------------
  C      3.090543   -0.539112   -0.005567
  C      1.598533   -0.527589   -0.078758
  N      1.022901   -1.762166   -0.050871
  N      0.874535    0.541784   -0.201220
  C      3.846800    0.541679    0.204691
  N     -1.975629    0.369370   -0.054633
  C     -2.485861   -0.864061    0.087204
  O     -1.836884   -1.904458    0.205797
  H      3.572178   -1.515570   -0.128643
  H      1.569595   -2.519126    0.339413
  H     -0.000525   -1.829938    0.062357
  H      1.467642    1.366371   -0.312210
  H      4.935022    0.483373    0.249072
  H      3.397899    1.528926    0.351258
  H     -2.616574    1.141430   -0.188898
  H     -0.942566    0.515727   -0.133468
  H     -3.602809   -0.889841    0.099675

 Multiplicity           Mult            ....    1
 Number of Electrons    NEL             ....   62
 Basis Dimension        Dim             ....  157

ORBITAL ENERGIES
----------------

  NO   OCC          E(Eh)            E(eV)
   0   2.0000     -19.098212      -519.6888
   1   2.0000     -14.326447      -389.8424
   2   2.0000     -14.322938      -389.7470
   3   2.0000     -14.286627      -388.7589
   4   2.0000     -10.274056      -279.5713
   5   2.0000     -10.257033      -279.1081
   6   2.0000     -10.205596      -277.7084
   7   2.0000     -10.203433      -277.6495
   8   2.0000      -1.016972       -27.6732
   9   2.0000      -0.936235       -25.4762
  10   2.0000      -0.884485       -24.0681
  11   2.0000      -0.838788       -22.8246
  12   2.0000      -0.777469       -21.1560
  13   2.0000      -0.635252       -17.2861
  14   2.0000      -0.596872       -16.2417
  15   2.0000      -0.560165       -15.2429
  16   2.0000      -0.530661       -14.4400
  17   2.0000      -0.513329       -13.9684
  18   2.0000      -0.492748       -13.4084
  19   2.0000      -0.459022       -12.4906
  20   2.0000      -0.444762       -12.1026
  21   2.0000      -0.417248       -11.3539
  22   2.0000      -0.397255       -10.8099
  23   2.0000      -0.386751       -10.5240
  24   2.0000      -0.381174       -10.3723
  25   2.0000      -0.377090       -10.2611
  26   2.0000      -0.278756        -7.5853
  27   2.0000      -0.272791        -7.4230
  28   2.0000      -0.253250        -6.8913
  29   2.0000      -0.242603        -6.6016
  30   2.0000      -0.226191        -6.1550
  31   0.0000      -0.034891        -0.9494
  32   0.0000       0.040972         1.1149
  33   0.0000       0.061529         1.6743
  34   0.0000       0.071195         1.9373
  35   0.0000       0.076763         2.0888

-------
TIMINGS
-------

Dispersion correction           -0.022537356
FINAL SINGLE POINT ENERGY      -397.140343549598

DIPOLE MOMENT
-------------
                                X             Y             Z
Electronic contribution:     -2.96739      -2.09410      -0.09607
Nuclear contribution   :      3.58904       2.83056       0.18423
                        -----------------------------------------
Total Dipole Moment    :      0.62165       0.73646       0.08816
                        -----------------------------------------
Magnitude (a.u.)       :      0.96778
Magnitude (Debye)      :      2.45989

                             ****ORCA TERMINATED NORMALLY****
TOTAL RUN TIME: 0 days 0 hours 2 minutes 30 seconds 376 msec
