                         Program Version 4.0.1.2 - RELEASE -
|  1> %pal nprocs 6 end
|  2> %maxcore 1000
|  3> ! b3lyp TIGHTSCF nopop D3BJ
|  4> ! cc-pvdz def2/J RIJCOSX
|  5> ! Opt
|  6>
|  7> %geom
|  8> maxiter 60
|  9> TolE 1e-4
| 10> TolRMSG 2e-3
| 11> TolMaxG 3e-3
| 12> TolRMSD 2e-2
| 13> TolMaxD 3e-2
| 14> end
| 15>
| 16> *xyz 0 1
| 17> N 3.7635 -1.7735 -0.1844
| 18> C 3.158 -0.632 -0.1297
| 19> C 1.6425 -0.5708 -0.2134
| 20> N 0.9585 -1.7403 -0.3461
| 21> N 1.0356 0.574 -0.1582
| 22> N -1.783 0.5055 0.1063
| 23> C -2.3606 -0.6903 0.3746
| 24> O -1.6932 -1.6777 0.6716
| 25> C -3.8383 -0.7742 0.2986
| 26> C -4.6822 0.223 -0.0118
| 27> H 4.7773 -1.6249 -0.1266
| 28> H 3.6836 0.3314 -0.035
| 29> H 1.4941 -2.564 -0.0796
| 30> H 0.01 -1.7362 0.0409
| 31> H 1.7135 1.3388 -0.0642
| 32> H -2.272 1.2893 -0.2991
| 33> H -0.7593 0.53 0.0475
| 34> H -4.2281 -1.7647 0.5123
| 35> H -4.3631 1.2345 -0.2308
| 36> H -5.7514 0.0322 -0.0428
| 37> *
| 38>
| 39>
| 40>                          ****END OF INPUT****
 Total Charge           Charge          ....    0
 Multiplicity           Mult            ....    1
 Number of Electrons    NEL             ....   76
Dispersion correction           -0.028922329
FINAL SINGLE POINT ENERGY      -490.542877598108
Dispersion correction            ... done
Dispersion correction           -0.028662129
FINAL SINGLE POINT ENERGY      -490.546080228563
Dispersion correction            ... done
Dispersion correction           -0.028651238
FINAL SINGLE POINT ENERGY      -490.546947862173
Dispersion correction            ... done
FINAL SINGLE POINT ENERGY      -490.547417682445
Dispersion correction            ... done
Dispersion correction           -0.028663931
FINAL SINGLE POINT ENERGY      -490.547826457178
Dispersion correction            ... done
Dispersion correction           -0.028692351
FINAL SINGLE POINT ENERGY      -490.548117001284
Dispersion correction            ... done
                    ***********************HURRAY********************

CARTESIAN COORDINATES (ANGSTROEM)
---------------------------------
  N      3.759438   -1.758619    0.102363
  C      3.175292   -0.641559   -0.070789
  C      1.680771   -0.585618   -0.222315
  N      1.061194   -1.784618   -0.267898
  N      1.058202    0.550959   -0.308696
  N     -1.816695    0.528385   -0.079189
  C     -2.377131   -0.679936    0.140167
  O     -1.722877   -1.715792    0.331674
  C     -3.871675   -0.768761    0.179236
  C     -4.727257    0.253568    0.275138
  H      4.774567   -1.642293    0.208507
  H      3.677046    0.344606   -0.103014
  H      1.648427   -2.564611    0.011310
  H      0.053186   -1.823847   -0.050415
  H      1.733276    1.320625   -0.283589
  H     -2.400014    1.284705   -0.410631
  H     -0.781475    0.616917   -0.147357
  H     -4.223180   -1.803632    0.172139
  H     -4.389166    1.292543    0.329211
  H     -5.806529    0.087077    0.324248

 Multiplicity           Mult            ....    1
 Number of Electrons    NEL             ....   76
 Basis Dimension        Dim             ....  190

ORBITAL ENERGIES
----------------

  NO   OCC          E(Eh)            E(eV)
   0   2.0000     -19.096038      -519.6296
   1   2.0000     -14.339658      -390.2019
   2   2.0000     -14.323368      -389.7586
   3   2.0000     -14.314905      -389.5284
   4   2.0000     -14.296743      -389.0342
   5   2.0000     -10.277813      -279.6735
   6   2.0000     -10.255042      -279.0539
   7   2.0000     -10.249172      -278.8942
   8   2.0000     -10.200774      -277.5772
   9   2.0000     -10.195720      -277.4397
  10   2.0000      -1.018402       -27.7121
  11   2.0000      -0.949642       -25.8411
  12   2.0000      -0.903059       -24.5735
  13   2.0000      -0.884640       -24.0723
  14   2.0000      -0.841500       -22.8984
  15   2.0000      -0.776425       -21.1276
  16   2.0000      -0.660591       -17.9756
  17   2.0000      -0.628986       -17.1156
  18   2.0000      -0.566008       -15.4018
  19   2.0000      -0.555815       -15.1245
  20   2.0000      -0.530656       -14.4399
  21   2.0000      -0.522432       -14.2161
  22   2.0000      -0.497705       -13.5432
  23   2.0000      -0.468727       -12.7547
  24   2.0000      -0.450470       -12.2579
  25   2.0000      -0.443937       -12.0801
  26   2.0000      -0.424501       -11.5513
  27   2.0000      -0.398381       -10.8405
  28   2.0000      -0.395064       -10.7502
  29   2.0000      -0.392002       -10.6669
  30   2.0000      -0.369084       -10.0433
  31   2.0000      -0.318786        -8.6746
  32   2.0000      -0.295839        -8.0502
  33   2.0000      -0.277198        -7.5429
  34   2.0000      -0.271066        -7.3761
  35   2.0000      -0.251994        -6.8571
  36   2.0000      -0.244284        -6.6473
  37   2.0000      -0.228510        -6.2181
  38   0.0000      -0.048007        -1.3063
  39   0.0000      -0.032514        -0.8847
  40   0.0000       0.053426         1.4538
  41   0.0000       0.063984         1.7411
  42   0.0000       0.086741         2.3603

-------
TIMINGS
-------

Dispersion correction           -0.028690440
FINAL SINGLE POINT ENERGY      -490.548264723446

DIPOLE MOMENT
-------------
                                X             Y             Z
Electronic contribution:      2.55547      -2.37476      -0.01475
Nuclear contribution   :     -2.05555       3.47730      -0.03208
                        -----------------------------------------
Total Dipole Moment    :      0.49992       1.10254      -0.04683
                        -----------------------------------------
Magnitude (a.u.)       :      1.21149
Magnitude (Debye)      :      3.07937

                             ****ORCA TERMINATED NORMALLY****
TOTAL RUN TIME: 0 days 0 hours 3 minutes 37 seconds 853 msec
