                         Program Version 4.0.1.2 - RELEASE -
|  1> %pal nprocs 6 end
|  2> %maxcore 1000
|  3> ! b3lyp TIGHTSCF nopop D3BJ
|  4> ! cc-pvdz def2/J RIJCOSX
|  5> ! Opt
|  6>
|  7> %geom
|  8> maxiter 60
|  9> TolE 1e-4
| 10> TolRMSG 2e-3
| 11> TolMaxG 3e-3
| 12> TolRMSD 2e-2
| 13> TolMaxD 3e-2
| 14> end
| 15>
| 16> *xyz 0 1
| 17> C 1.4897 1.5513 0.001
| 18> N 2.8435 1.7149 0.0001
| 19> C 3.6643 0.7265 0.0004
| 20> N 0.8595 0.4301 0.0023
| 21> H 0.8961 2.4818 0.0004
| 22> H 4.7463 0.9377 -0.0003
| 23> H 3.3922 -0.34 0.0013
| 24> H 1.4831 -0.3691 0.0028
| 25> *
| 26>
| 27>
| 28>                          ****END OF INPUT****
 Total Charge           Charge          ....    0
 Multiplicity           Mult            ....    1
 Number of Electrons    NEL             ....   30
Dispersion correction           -0.008569643
FINAL SINGLE POINT ENERGY      -187.969027182114
Dispersion correction            ... done
Dispersion correction           -0.008468019
FINAL SINGLE POINT ENERGY      -187.973704143236
Dispersion correction            ... done
Dispersion correction           -0.008489526
FINAL SINGLE POINT ENERGY      -187.974631742944
Dispersion correction            ... done
Dispersion correction           -0.008503572
FINAL SINGLE POINT ENERGY      -187.974836175269
Dispersion correction            ... done
                    ***********************HURRAY********************

CARTESIAN COORDINATES (ANGSTROEM)
---------------------------------
  C      1.477567    1.512029    0.000916
  N      2.899995    1.748657    0.001273
  C      3.691274    0.751972    0.000174
  N      0.809326    0.430469    0.002659
  H      0.917321    2.457089   -0.000916
  H      4.773750    0.939251    0.000810
  H      3.375219   -0.311331   -0.001545
  H      1.430248   -0.394935    0.004630

 Multiplicity           Mult            ....    1
 Number of Electrons    NEL             ....   30
 Basis Dimension        Dim             ....   76

ORBITAL ENERGIES
----------------

  NO   OCC          E(Eh)            E(eV)
   0   2.0000     -14.346253      -390.3814
   1   2.0000     -14.326964      -389.8565
   2   2.0000     -10.257764      -279.1279
   3   2.0000     -10.254648      -279.0432
   4   2.0000      -0.957963       -26.0675
   5   2.0000      -0.878720       -23.9112
   6   2.0000      -0.681071       -18.5329
   7   2.0000      -0.575548       -15.6615
   8   2.0000      -0.527062       -14.3421
   9   2.0000      -0.470966       -12.8156
  10   2.0000      -0.411701       -11.2030
  11   2.0000      -0.393360       -10.7039
  12   2.0000      -0.303737        -8.2651
  13   2.0000      -0.299765        -8.1570
  14   2.0000      -0.260968        -7.1013
  15   0.0000      -0.070845        -1.9278
  16   0.0000       0.050707         1.3798
  17   0.0000       0.053899         1.4667
  18   0.0000       0.095809         2.6071
  19   0.0000       0.125483         3.4146

-------
TIMINGS
-------

Dispersion correction           -0.008505659
FINAL SINGLE POINT ENERGY      -187.974860753825

DIPOLE MOMENT
-------------
                                X             Y             Z
Electronic contribution:     -0.73146       1.07258       0.00124
Nuclear contribution   :      1.50257      -1.52060      -0.00196
                        -----------------------------------------
Total Dipole Moment    :      0.77112      -0.44803      -0.00073
                        -----------------------------------------
Magnitude (a.u.)       :      0.89183
Magnitude (Debye)      :      2.26684

                             ****ORCA TERMINATED NORMALLY****
TOTAL RUN TIME: 0 days 0 hours 0 minutes 40 seconds 454 msec
