                         Program Version 4.0.1.2 - RELEASE -
|  1> %pal nprocs 6 end
|  2> %maxcore 1000
|  3> ! b3lyp TIGHTSCF nopop D3BJ
|  4> ! cc-pvdz def2/J RIJCOSX
|  5> ! Opt
|  6>
|  7> %geom
|  8> maxiter 60
|  9> TolE 1e-4
| 10> TolRMSG 2e-3
| 11> TolMaxG 3e-3
| 12> TolRMSD 2e-2
| 13> TolMaxD 3e-2
| 14> end
| 15>
| 16> *xyz 0 1
| 17> C 1.5841 -0.7281 0.0308
| 18> N 1.0248 -1.9363 -0.1827
| 19> N 0.9058 0.3625 0.0833
| 20> N -3.8368 1.5658 -0.0575
| 21> C -2.4674 1.6491 -0.0577
| 22> O -1.8974 2.7337 -0.1187
| 23> N -1.8085 0.4536 0.0143
| 24> C -2.4031 -0.7748 0.0822
| 25> O -1.7795 -1.8312 0.1459
| 26> C -3.8808 -0.7784 0.0774
| 27> C -4.5254 0.3882 0.0076
| 28> H 2.6813 -0.7518 0.1469
| 29> H 1.4674 -2.7418 0.2404
| 30> H 0.004 -1.9591 -0.0866
| 31> H 1.5534 1.149 0.237
| 32> H -4.3258 2.4517 -0.1122
| 33> H -0.7859 0.4832 0.0121
| 34> H -4.3818 -1.7349 0.13
| 35> H -5.6084 0.4538 -0.0008
| 36> *
| 37>
| 38>
| 39>                          ****END OF INPUT****
 Total Charge           Charge          ....    0
 Multiplicity           Mult            ....    1
 Number of Electrons    NEL             ....   82
Dispersion correction           -0.031027096
FINAL SINGLE POINT ENERGY      -564.610962644244
Dispersion correction            ... done
Dispersion correction           -0.030479025
FINAL SINGLE POINT ENERGY      -564.615146782909
Dispersion correction            ... done
Dispersion correction           -0.030482739
FINAL SINGLE POINT ENERGY      -564.615853129524
Dispersion correction            ... done
Dispersion correction           -0.030517001
FINAL SINGLE POINT ENERGY      -564.616151264450
Dispersion correction            ... done
                    ***********************HURRAY********************

CARTESIAN COORDINATES (ANGSTROEM)
---------------------------------
  C      1.635833   -0.721496    0.058003
  N      1.066642   -1.940326   -0.140526
  N      0.959255    0.375013    0.051230
  N     -3.863722    1.586941   -0.039098
  C     -2.462031    1.652862   -0.046735
  O     -1.877413    2.717363   -0.105490
  N     -1.841274    0.419215    0.017786
  C     -2.471051   -0.821410    0.080887
  O     -1.817787   -1.867680    0.145036
  C     -3.927629   -0.783151    0.063551
  C     -4.563832    0.410384    0.005509
  H      2.732925   -0.748965    0.184890
  H      1.576964   -2.738676    0.217665
  H      0.039418   -1.983899   -0.067223
  H      1.563113    1.192357    0.150674
  H     -4.333513    2.483390   -0.084258
  H     -0.779201    0.442592    0.012935
  H     -4.465309   -1.727720    0.097531
  H     -5.651388    0.507405   -0.010667

 Multiplicity           Mult            ....    1
 Number of Electrons    NEL             ....   82
 Basis Dimension        Dim             ....  194

ORBITAL ENERGIES
----------------

  NO   OCC          E(Eh)            E(eV)
   0   2.0000     -19.107885      -519.9520
   1   2.0000     -19.104158      -519.8506
   2   2.0000     -14.386871      -391.4867
   3   2.0000     -14.348644      -390.4465
   4   2.0000     -14.328203      -389.8902
   5   2.0000     -14.293713      -388.9517
   6   2.0000     -10.318029      -280.7679
   7   2.0000     -10.291557      -280.0475
   8   2.0000     -10.259185      -279.1666
   9   2.0000     -10.255506      -279.0665
  10   2.0000     -10.192102      -277.3412
  11   2.0000      -1.058465       -28.8023
  12   2.0000      -1.027890       -27.9703
  13   2.0000      -0.964739       -26.2519
  14   2.0000      -0.933735       -25.4082
  15   2.0000      -0.904283       -24.6068
  16   2.0000      -0.841833       -22.9074
  17   2.0000      -0.784821       -21.3561
  18   2.0000      -0.671655       -18.2767
  19   2.0000      -0.644888       -17.5483
  20   2.0000      -0.599475       -16.3125
  21   2.0000      -0.578232       -15.7345
  22   2.0000      -0.547143       -14.8885
  23   2.0000      -0.538051       -14.6411
  24   2.0000      -0.500057       -13.6072
  25   2.0000      -0.472032       -12.8446
  26   2.0000      -0.461695       -12.5634
  27   2.0000      -0.450246       -12.2518
  28   2.0000      -0.439498       -11.9594
  29   2.0000      -0.430829       -11.7235
  30   2.0000      -0.406153       -11.0520
  31   2.0000      -0.403867       -10.9898
  32   2.0000      -0.389681       -10.6038
  33   2.0000      -0.364309        -9.9134
  34   2.0000      -0.353795        -9.6273
  35   2.0000      -0.286579        -7.7982
  36   2.0000      -0.265001        -7.2110
  37   2.0000      -0.263972        -7.1830
  38   2.0000      -0.251918        -6.8550
  39   2.0000      -0.237597        -6.4653
  40   2.0000      -0.234060        -6.3691
  41   0.0000      -0.030973        -0.8428
  42   0.0000       0.025052         0.6817
  43   0.0000       0.033044         0.8992
  44   0.0000       0.041376         1.1259
  45   0.0000       0.058906         1.6029

-------
TIMINGS
-------

Dispersion correction           -0.030534953
FINAL SINGLE POINT ENERGY      -564.616238108905

DIPOLE MOMENT
-------------
                                X             Y             Z
Electronic contribution:     -4.37202       2.83130      -0.13311
Nuclear contribution   :      3.84673      -3.07786       0.39669
                        -----------------------------------------
Total Dipole Moment    :     -0.52529      -0.24657       0.26358
                        -----------------------------------------
Magnitude (a.u.)       :      0.63734
Magnitude (Debye)      :      1.61998

                             ****ORCA TERMINATED NORMALLY****
TOTAL RUN TIME: 0 days 0 hours 2 minutes 53 seconds 582 msec
