                         Program Version 4.0.1.2 - RELEASE -
|  1> %pal nprocs 6 end
|  2> %maxcore 1000
|  3> ! b3lyp TIGHTSCF nopop D3BJ
|  4> ! cc-pvdz def2/J RIJCOSX
|  5> ! Opt
|  6>
|  7> %geom
|  8> maxiter 60
|  9> TolE 1e-4
| 10> TolRMSG 2e-3
| 11> TolMaxG 3e-3
| 12> TolRMSD 2e-2
| 13> TolMaxD 3e-2
| 14> end
| 15>
| 16> *xyz 0 1
| 17> C 5.2046 -0.9084 -0.0318
| 18> N 3.9926 -1.3487 -0.0263
| 19> C 3.0098 -0.401 0.013
| 20> C 1.7193 -0.7448 0.0223
| 21> H 5.4798 0.1608 -0.0071
| 22> H 6.039 -1.6273 -0.0628
| 23> H 3.2728 0.6555 0.0372
| 24> H 1.4255 -1.7889 -0.0012
| 25> H 0.9395 0.0065 0.0535
| 26> *
| 27>
| 28>
| 29>                          ****END OF INPUT****
 Total Charge           Charge          ....    0
 Multiplicity           Mult            ....    1
 Number of Electrons    NEL             ....   30
Dispersion correction           -0.009249557
FINAL SINGLE POINT ENERGY      -171.934879599493
Dispersion correction            ... done
Dispersion correction           -0.009202117
FINAL SINGLE POINT ENERGY      -171.936377564302
Dispersion correction            ... done
Dispersion correction           -0.009199731
FINAL SINGLE POINT ENERGY      -171.936518920261
Dispersion correction            ... done
                    ***********************HURRAY********************

CARTESIAN COORDINATES (ANGSTROEM)
---------------------------------
  C      5.221211   -0.918363   -0.032045
  N      4.018339   -1.343845   -0.025712
  C      2.994024   -0.385534    0.013504
  C      1.703331   -0.745947    0.022495
  H      5.490750    0.156681   -0.007906
  H      6.044670   -1.642638   -0.063495
  H      3.275593    0.682619    0.038053
  H      1.425296   -1.802284   -0.002056
  H      0.909688    0.003012    0.053962

 Multiplicity           Mult            ....    1
 Number of Electrons    NEL             ....   30
 Basis Dimension        Dim             ....   81

ORBITAL ENERGIES
----------------

  NO   OCC          E(Eh)            E(eV)
   0   2.0000     -14.334974      -390.0745
   1   2.0000     -10.231264      -278.4069
   2   2.0000     -10.216203      -277.9970
   3   2.0000     -10.187573      -277.2180
   4   2.0000      -0.931072       -25.3358
   5   2.0000      -0.760469       -20.6934
   6   2.0000      -0.631813       -17.1925
   7   2.0000      -0.554988       -15.1020
   8   2.0000      -0.491850       -13.3839
   9   2.0000      -0.468506       -12.7487
  10   2.0000      -0.398157       -10.8344
  11   2.0000      -0.383741       -10.4421
  12   2.0000      -0.371902       -10.1200
  13   2.0000      -0.261312        -7.1107
  14   2.0000      -0.251028        -6.8308
  15   0.0000      -0.041671        -1.1339
  16   0.0000       0.055153         1.5008
  17   0.0000       0.077179         2.1001
  18   0.0000       0.094362         2.5677
  19   0.0000       0.110527         3.0076

-------
TIMINGS
-------

Dispersion correction           -0.009202288
FINAL SINGLE POINT ENERGY      -171.936554027801

DIPOLE MOMENT
-------------
                                X             Y             Z
Electronic contribution:      0.52022      -1.01567      -0.03294
Nuclear contribution   :     -0.32244       1.47882       0.04233
                        -----------------------------------------
Total Dipole Moment    :      0.19779       0.46315       0.00939
                        -----------------------------------------
Magnitude (a.u.)       :      0.50370
Magnitude (Debye)      :      1.28031

                             ****ORCA TERMINATED NORMALLY****
TOTAL RUN TIME: 0 days 0 hours 0 minutes 34 seconds 258 msec
