                         Program Version 4.0.1.2 - RELEASE -
|  1> %pal nprocs 6 end
|  2> %maxcore 1000
|  3> ! b3lyp TIGHTSCF nopop D3BJ
|  4> ! cc-pvdz def2/J RIJCOSX
|  5> ! Opt
|  6>
|  7> %geom
|  8> maxiter 60
|  9> TolE 1e-4
| 10> TolRMSG 2e-3
| 11> TolMaxG 3e-3
| 12> TolRMSD 2e-2
| 13> TolMaxD 3e-2
| 14> end
| 15>
| 16> *xyz 0 1
| 17> N 4.9861 0.5665 -0.0136
| 18> C 5.1179 -0.778 0.0074
| 19> N 4.1496 -1.616 0.0118
| 20> H 4.0848 0.9404 -0.2818
| 21> H 5.7722 1.0986 -0.3709
| 22> H 6.1658 -1.1222 0.0296
| 23> H 3.2573 -1.1184 0.0182
| 24> *
| 25>
| 26>
| 27>                          ****END OF INPUT****
 Total Charge           Charge          ....    0
 Multiplicity           Mult            ....    1
 Number of Electrons    NEL             ....   24
Dispersion correction           -0.005768776
FINAL SINGLE POINT ENERGY      -149.925246481636
Dispersion correction            ... done
Dispersion correction           -0.005730290
FINAL SINGLE POINT ENERGY      -149.927292198629
Dispersion correction            ... done
Dispersion correction           -0.005720057
FINAL SINGLE POINT ENERGY      -149.927482844482
Dispersion correction            ... done
                    ***********************HURRAY********************

CARTESIAN COORDINATES (ANGSTROEM)
---------------------------------
  N      4.999938    0.601799   -0.015157
  C      5.094737   -0.779238   -0.002402
  N      4.162205   -1.650109    0.038885
  H      4.101704    0.997146   -0.280104
  H      5.795267    1.118518   -0.375455
  H      6.138960   -1.132459    0.026970
  H      3.240889   -1.184757    0.007963

 Multiplicity           Mult            ....    1
 Number of Electrons    NEL             ....   24
 Basis Dimension        Dim             ....   62

ORBITAL ENERGIES
----------------

  NO   OCC          E(Eh)            E(eV)
   0   2.0000     -14.345074      -390.3493
   1   2.0000     -14.285192      -388.7198
   2   2.0000     -10.246952      -278.8337
   3   2.0000      -0.934215       -25.4213
   4   2.0000      -0.840490       -22.8709
   5   2.0000      -0.608105       -16.5474
   6   2.0000      -0.524462       -14.2713
   7   2.0000      -0.495217       -13.4756
   8   2.0000      -0.397519       -10.8170
   9   2.0000      -0.363621        -9.8946
  10   2.0000      -0.256471        -6.9789
  11   2.0000      -0.237128        -6.4526
  12   0.0000       0.039413         1.0725
  13   0.0000       0.055972         1.5231
  14   0.0000       0.075151         2.0450
  15   0.0000       0.121705         3.3118
  16   0.0000       0.143279         3.8988

-------
TIMINGS
-------

Dispersion correction           -0.005718493
FINAL SINGLE POINT ENERGY      -149.927500087689

DIPOLE MOMENT
-------------
                                X             Y             Z
Electronic contribution:     -0.09457      -0.62049       0.16439
Nuclear contribution   :      0.28456       1.87646      -0.55461
                        -----------------------------------------
Total Dipole Moment    :      0.18999       1.25597      -0.39022
                        -----------------------------------------
Magnitude (a.u.)       :      1.32884
Magnitude (Debye)      :      3.37765

                             ****ORCA TERMINATED NORMALLY****
TOTAL RUN TIME: 0 days 0 hours 0 minutes 25 seconds 962 msec
