                         Program Version 4.0.1.2 - RELEASE -
|  1> %pal nprocs 6 end
|  2> %maxcore 1000
|  3> ! b3lyp TIGHTSCF nopop D3BJ
|  4> ! cc-pvdz def2/J RIJCOSX
|  5> ! Opt
|  6>
|  7> %geom
|  8> maxiter 60
|  9> TolE 1e-4
| 10> TolRMSG 2e-3
| 11> TolMaxG 3e-3
| 12> TolRMSD 2e-2
| 13> TolMaxD 3e-2
| 14> end
| 15>
| 16> *xyz 0 1
| 17> N -3.8418 1.5683 -0.0014
| 18> C -2.4731 1.619 -0.0025
| 19> O -1.863 2.6826 -0.0043
| 20> N -1.8382 0.409 -0.0014
| 21> C -2.4606 -0.8075 0.0002
| 22> O -1.8512 -1.8705 0.0006
| 23> C -3.9373 -0.7795 0.0014
| 24> C -4.5561 0.4034 0.0005
| 25> H -4.3146 2.4653 -0.0021
| 26> H -0.8308 0.4173 -0.0023
| 27> H -4.4583 -1.7271 0.003
| 28> H -5.6377 0.4924 0.0013
| 29> *
| 30>
| 31>
| 32>                          ****END OF INPUT****
 Total Charge           Charge          ....    0
 Multiplicity           Mult            ....    1
 Number of Electrons    NEL             ....   58
Dispersion correction           -0.019716358
FINAL SINGLE POINT ENERGY      -414.649356417353
Dispersion correction            ... done
Dispersion correction           -0.019608397
FINAL SINGLE POINT ENERGY      -414.652710059311
Dispersion correction            ... done
Dispersion correction           -0.019568371
FINAL SINGLE POINT ENERGY      -414.653673287535
Dispersion correction            ... done
Dispersion correction           -0.019569297
FINAL SINGLE POINT ENERGY      -414.653776373845
Dispersion correction            ... done
                    ***********************HURRAY********************

CARTESIAN COORDINATES (ANGSTROEM)
---------------------------------
  N     -3.851107    1.583335   -0.001163
  C     -2.458163    1.652898   -0.002667
  O     -1.854440    2.706945   -0.004813
  N     -1.854216    0.405371   -0.001388
  C     -2.473263   -0.863574    0.000395
  O     -1.803437   -1.880913    0.000986
  C     -3.932451   -0.797341    0.001250
  C     -4.554838    0.402264    0.000560
  H     -4.323105    2.479657   -0.001727
  H     -0.836984    0.414073   -0.002276
  H     -4.479464   -1.737016    0.002540
  H     -5.641233    0.507003    0.001302

 Multiplicity           Mult            ....    1
 Number of Electrons    NEL             ....   58
 Basis Dimension        Dim             ....  132

ORBITAL ENERGIES
----------------

  NO   OCC          E(Eh)            E(eV)
   0   2.0000     -19.123120      -520.3666
   1   2.0000     -19.115867      -520.1692
   2   2.0000     -14.401144      -391.8751
   3   2.0000     -14.381273      -391.3343
   4   2.0000     -10.337729      -281.3039
   5   2.0000     -10.302760      -280.3524
   6   2.0000     -10.270713      -279.4803
   7   2.0000     -10.204599      -277.6813
   8   2.0000      -1.077896       -29.3311
   9   2.0000      -1.042865       -28.3778
  10   2.0000      -0.980926       -26.6924
  11   2.0000      -0.926289       -25.2056
  12   2.0000      -0.799419       -21.7533
  13   2.0000      -0.690293       -18.7838
  14   2.0000      -0.662393       -18.0246
  15   2.0000      -0.596766       -16.2388
  16   2.0000      -0.557816       -15.1789
  17   2.0000      -0.520533       -14.1644
  18   2.0000      -0.478914       -13.0319
  19   2.0000      -0.471550       -12.8315
  20   2.0000      -0.449455       -12.2303
  21   2.0000      -0.421675       -11.4743
  22   2.0000      -0.416011       -11.3202
  23   2.0000      -0.403369       -10.9762
  24   2.0000      -0.368770       -10.0347
  25   2.0000      -0.294105        -8.0030
  26   2.0000      -0.284037        -7.7290
  27   2.0000      -0.262114        -7.1325
  28   2.0000      -0.250902        -6.8274
  29   0.0000      -0.042734        -1.1629
  30   0.0000       0.012512         0.3405
  31   0.0000       0.030129         0.8199
  32   0.0000       0.079930         2.1750
  33   0.0000       0.085483         2.3261

-------
TIMINGS
-------

Dispersion correction           -0.019573180
FINAL SINGLE POINT ENERGY      -414.653804645904

DIPOLE MOMENT
-------------
                                X             Y             Z
Electronic contribution:      2.22636       0.53605      -0.00226
Nuclear contribution   :     -3.76091      -0.02293       0.00325
                        -----------------------------------------
Total Dipole Moment    :     -1.53454       0.51313       0.00099
                        -----------------------------------------
Magnitude (a.u.)       :      1.61806
Magnitude (Debye)      :      4.11279

                             ****ORCA TERMINATED NORMALLY****
TOTAL RUN TIME: 0 days 0 hours 1 minutes 17 seconds 243 msec
