                         Program Version 4.0.1.2 - RELEASE -
|  1> %pal nprocs 6 end
|  2> %maxcore 1000
|  3> ! b3lyp TIGHTSCF nopop D3BJ
|  4> ! cc-pvdz def2/J RIJCOSX
|  5> ! Opt
|  6>
|  7> %geom
|  8> maxiter 60
|  9> TolE 1e-4
| 10> TolRMSG 2e-3
| 11> TolMaxG 3e-3
| 12> TolRMSD 2e-2
| 13> TolMaxD 3e-2
| 14> end
| 15>
| 16> *xyz 0 1
| 17> N 3.7932 -1.6699 -0.0533
| 18> C 3.1352 -0.5605 -0.1193
| 19> C 1.6206 -0.5836 -0.2398
| 20> N 0.9975 -1.7923 -0.2759
| 21> N 0.9573 0.5278 -0.3055
| 22> N -1.8519 0.326 0.0267
| 23> C -2.3464 -0.8517 0.484
| 24> O -1.6425 -1.81 0.7707
| 25> H 4.7974 -1.4702 0.0163
| 26> H 3.6116 0.4317 -0.0976
| 27> H 1.569 -2.5606 0.0671
| 28> H 0.0447 -1.808 0.0967
| 29> H 1.5944 1.3305 -0.2716
| 30> H -2.4359 1.079 -0.3025
| 31> H -0.8412 0.4038 -0.1361
| 32> H -3.4452 -0.8574 0.5647
| 33> *
| 34>
| 35>
| 36>                          ****END OF INPUT****
 Total Charge           Charge          ....    0
 Multiplicity           Mult            ....    1
 Number of Electrons    NEL             ....   62
Dispersion correction           -0.021227055
FINAL SINGLE POINT ENERGY      -413.182998094240
Dispersion correction            ... done
Dispersion correction           -0.021019019
FINAL SINGLE POINT ENERGY      -413.186036549451
Dispersion correction            ... done
Dispersion correction           -0.021014328
FINAL SINGLE POINT ENERGY      -413.186947030844
Dispersion correction            ... done
FINAL SINGLE POINT ENERGY      -413.187457507272
FINAL SINGLE POINT ENERGY      -413.187724783616
FINAL SINGLE POINT ENERGY      -413.187912207105
Dispersion correction            ... done
Dispersion correction           -0.021011032
FINAL SINGLE POINT ENERGY      -413.188078540964
Dispersion correction            ... done
Dispersion correction           -0.021001343
FINAL SINGLE POINT ENERGY      -413.188190052422
Dispersion correction            ... done
                    ***********************HURRAY********************

CARTESIAN COORDINATES (ANGSTROEM)
---------------------------------
  N      3.805429   -1.647908    0.031369
  C      3.147669   -0.578449   -0.175974
  C      1.647388   -0.598267   -0.160614
  N      1.090812   -1.814309   -0.023106
  N      0.960594    0.499024   -0.282180
  N     -1.881990    0.391638    0.135763
  C     -2.387464   -0.838339    0.332467
  O     -1.737120   -1.879521    0.423224
  H      4.817783   -1.471920   -0.001166
  H      3.593564    0.416345   -0.366459
  H      1.723785   -2.569893    0.211073
  H      0.077186   -1.905438    0.138739
  H      1.588127    1.296413   -0.414712
  H     -2.526609    1.159198   -0.008767
  H     -0.861146    0.526272   -0.045557
  H     -3.500207   -0.850245    0.430502

 Multiplicity           Mult            ....    1
 Number of Electrons    NEL             ....   62
 Basis Dimension        Dim             ....  152

ORBITAL ENERGIES
----------------

  NO   OCC          E(Eh)            E(eV)
   0   2.0000     -19.099784      -519.7315
   1   2.0000     -14.340774      -390.2323
   2   2.0000     -14.328561      -389.9000
   3   2.0000     -14.318549      -389.6275
   4   2.0000     -14.296372      -389.0240
   5   2.0000     -10.275705      -279.6161
   6   2.0000     -10.256884      -279.1040
   7   2.0000     -10.249978      -278.9161
   8   2.0000      -1.018782       -27.7225
   9   2.0000      -0.951555       -25.8931
  10   2.0000      -0.904451       -24.6114
  11   2.0000      -0.885932       -24.1074
  12   2.0000      -0.842649       -22.9296
  13   2.0000      -0.662531       -18.0284
  14   2.0000      -0.599476       -16.3126
  15   2.0000      -0.569693       -15.5021
  16   2.0000      -0.534561       -14.5461
  17   2.0000      -0.529806       -14.4167
  18   2.0000      -0.498774       -13.5723
  19   2.0000      -0.470625       -12.8064
  20   2.0000      -0.447059       -12.1651
  21   2.0000      -0.423794       -11.5320
  22   2.0000      -0.398837       -10.8529
  23   2.0000      -0.396569       -10.7912
  24   2.0000      -0.387309       -10.5392
  25   2.0000      -0.319767        -8.7013
  26   2.0000      -0.297149        -8.0858
  27   2.0000      -0.273540        -7.4434
  28   2.0000      -0.255167        -6.9434
  29   2.0000      -0.244333        -6.6486
  30   2.0000      -0.228003        -6.2043
  31   0.0000      -0.048459        -1.3186
  32   0.0000       0.039000         1.0612
  33   0.0000       0.052118         1.4182
  34   0.0000       0.069504         1.8913
  35   0.0000       0.085802         2.3348

-------
TIMINGS
-------

Dispersion correction           -0.020984285
FINAL SINGLE POINT ENERGY      -413.188270427970

DIPOLE MOMENT
-------------
                                X             Y             Z
Electronic contribution:      0.09802      -1.66418       0.19141
Nuclear contribution   :      0.59414       2.85599      -0.35456
                        -----------------------------------------
Total Dipole Moment    :      0.69216       1.19181      -0.16315
                        -----------------------------------------
Magnitude (a.u.)       :      1.38784
Magnitude (Debye)      :      3.52762

                             ****ORCA TERMINATED NORMALLY****
TOTAL RUN TIME: 0 days 0 hours 3 minutes 9 seconds 957 msec
