                         Program Version 4.0.1.2 - RELEASE -
|  1> %pal nprocs 6 end
|  2> %maxcore 1000
|  3> ! b3lyp TIGHTSCF nopop D3BJ
|  4> ! cc-pvdz def2/J RIJCOSX
|  5> ! Opt
|  6>
|  7> %geom
|  8> maxiter 60
|  9> TolE 1e-4
| 10> TolRMSG 2e-3
| 11> TolMaxG 3e-3
| 12> TolRMSD 2e-2
| 13> TolMaxD 3e-2
| 14> end
| 15>
| 16> *xyz 0 1
| 17> C 3.1289 -0.5592 -0.0216
| 18> C 1.6417 -0.531 -0.1428
| 19> N 0.9682 -1.6958 -0.3386
| 20> N 0.9284 0.5499 -0.0741
| 21> C 3.9098 0.5101 0.1725
| 22> N -1.869 0.4588 0.046
| 23> C -2.4551 -0.7551 0.1626
| 24> O -1.7956 -1.778 0.3161
| 25> C -3.9357 -0.8126 0.1019
| 26> C -4.7753 0.2183 -0.062
| 27> H 3.5824 -1.5407 -0.1246
| 28> H 1.3492 -2.5271 0.0922
| 29> H -0.0372 -1.6279 -0.149
| 30> H 1.5326 1.3622 0.0584
| 31> H 4.9873 0.3868 0.2359
| 32> H 3.5334 1.5199 0.2764
| 33> H -2.3516 1.3064 -0.1981
| 34> H -0.8424 0.4943 0.0158
| 35> H -4.3313 -1.8196 0.2036
| 36> H -4.4487 1.2451 -0.1665
| 37> H -5.8468 0.0415 -0.0904
| 38> *
| 39>
| 40>
| 41>                          ****END OF INPUT****
 Total Charge           Charge          ....    0
 Multiplicity           Mult            ....    1
 Number of Electrons    NEL             ....   76
Dispersion correction           -0.030505853
FINAL SINGLE POINT ENERGY      -474.494004087605
Dispersion correction            ... done
Dispersion correction           -0.030129257
FINAL SINGLE POINT ENERGY      -474.497963206785
Dispersion correction            ... done
Dispersion correction           -0.030076746
FINAL SINGLE POINT ENERGY      -474.499013508291
Dispersion correction            ... done
FINAL SINGLE POINT ENERGY      -474.499490712169
FINAL SINGLE POINT ENERGY      -474.499922899230
Dispersion correction            ... done
Dispersion correction           -0.030146961
FINAL SINGLE POINT ENERGY      -474.500399125809
Dispersion correction            ... done
Dispersion correction           -0.030193071
FINAL SINGLE POINT ENERGY      -474.500803888473
Dispersion correction            ... done
                    ***********************HURRAY********************

CARTESIAN COORDINATES (ANGSTROEM)
---------------------------------
  C      3.131903   -0.574721   -0.039345
  C      1.644775   -0.502450   -0.151901
  N      1.022948   -1.719470   -0.187401
  N      0.965249    0.595569   -0.258630
  C      3.916134    0.443248    0.325088
  N     -1.907658    0.521849   -0.146684
  C     -2.460673   -0.695849    0.030818
  O     -1.799931   -1.728341    0.219853
  C     -3.954818   -0.803259    0.020631
  C     -4.825051    0.199031    0.156040
  H      3.581699   -1.548371   -0.265011
  H      1.525029   -2.474736    0.264821
  H      0.000438   -1.727659   -0.035788
  H      1.595314    1.398235   -0.324304
  H      5.000284    0.330257    0.388525
  H      3.497943    1.421117    0.580360
  H     -2.492847    1.279208   -0.470569
  H     -0.870162    0.620724   -0.184631
  H     -4.293546   -1.838649   -0.058869
  H     -4.501019    1.234674    0.284875
  H     -5.902809    0.015892    0.165823

 Multiplicity           Mult            ....    1
 Number of Electrons    NEL             ....   76
 Basis Dimension        Dim             ....  195

ORBITAL ENERGIES
----------------

  NO   OCC          E(Eh)            E(eV)
   0   2.0000     -19.095454      -519.6137
   1   2.0000     -14.321865      -389.7178
   2   2.0000     -14.319208      -389.6455
   3   2.0000     -14.286805      -388.7637
   4   2.0000     -10.276893      -279.6485
   5   2.0000     -10.254430      -279.0372
   6   2.0000     -10.203763      -277.6585
   7   2.0000     -10.201927      -277.6086
   8   2.0000     -10.199586      -277.5448
   9   2.0000     -10.194859      -277.4162
  10   2.0000      -1.017711       -27.6933
  11   2.0000      -0.934250       -25.4222
  12   2.0000      -0.883543       -24.0424
  13   2.0000      -0.837270       -22.7833
  14   2.0000      -0.777269       -21.1506
  15   2.0000      -0.775181       -21.0938
  16   2.0000      -0.634984       -17.2788
  17   2.0000      -0.625088       -17.0095
  18   2.0000      -0.556962       -15.1557
  19   2.0000      -0.553801       -15.0697
  20   2.0000      -0.522608       -14.2209
  21   2.0000      -0.510697       -13.8968
  22   2.0000      -0.488804       -13.3010
  23   2.0000      -0.460400       -12.5281
  24   2.0000      -0.450485       -12.2583
  25   2.0000      -0.440377       -11.9833
  26   2.0000      -0.417697       -11.3661
  27   2.0000      -0.396571       -10.7912
  28   2.0000      -0.394548       -10.7362
  29   2.0000      -0.380486       -10.3535
  30   2.0000      -0.373879       -10.1738
  31   2.0000      -0.367553       -10.0016
  32   2.0000      -0.278246        -7.5714
  33   2.0000      -0.277390        -7.5482
  34   2.0000      -0.269558        -7.3350
  35   2.0000      -0.250951        -6.8287
  36   2.0000      -0.243121        -6.6157
  37   2.0000      -0.226756        -6.1704
  38   0.0000      -0.033477        -0.9110
  39   0.0000      -0.030248        -0.8231
  40   0.0000       0.061961         1.6860
  41   0.0000       0.068979         1.8770
  42   0.0000       0.078210         2.1282

-------
TIMINGS
-------

Dispersion correction           -0.030209520
FINAL SINGLE POINT ENERGY      -474.500834126540

DIPOLE MOMENT
-------------
                                X             Y             Z
Electronic contribution:     -1.40459      -2.55365      -0.30351
Nuclear contribution   :      1.77479       3.20587       0.34859
                        -----------------------------------------
Total Dipole Moment    :      0.37020       0.65222       0.04507
                        -----------------------------------------
Magnitude (a.u.)       :      0.75131
Magnitude (Debye)      :      1.90967

                             ****ORCA TERMINATED NORMALLY****
TOTAL RUN TIME: 0 days 0 hours 4 minutes 9 seconds 50 msec
