                         Program Version 4.0.1.2 - RELEASE -
|  1> %pal nprocs 6 end
|  2> %maxcore 1000
|  3> ! b3lyp TIGHTSCF nopop D3BJ
|  4> ! cc-pvdz def2/J RIJCOSX
|  5> ! Opt
|  6>
|  7> %geom
|  8> maxiter 60
|  9> TolE 1e-4
| 10> TolRMSG 2e-3
| 11> TolMaxG 3e-3
| 12> TolRMSD 2e-2
| 13> TolMaxD 3e-2
| 14> end
| 15>
| 16> *xyz 0 1
| 17> N 3.958 -1.5351 0.0003
| 18> C 3.1887 -0.5026 0.0008
| 19> C 1.703 -0.6794 -0.0045
| 20> N 0.8951 0.3271 -0.004
| 21> H 4.9413 -1.2387 0.0043
| 22> H 3.561 0.5336 0.005
| 23> H 1.3431 -1.7202 -0.0089
| 24> H 1.3955 1.2207 0.0004
| 25> *
| 26>
| 27>
| 28>                          ****END OF INPUT****
 Total Charge           Charge          ....    0
 Multiplicity           Mult            ....    1
 Number of Electrons    NEL             ....   30
Dispersion correction           -0.008233529
FINAL SINGLE POINT ENERGY      -187.983579751990
Dispersion correction            ... done
Dispersion correction           -0.008253330
FINAL SINGLE POINT ENERGY      -187.984970129935
Dispersion correction            ... done
Dispersion correction           -0.008250596
FINAL SINGLE POINT ENERGY      -187.985235170474
Dispersion correction            ... done
                    ***********************HURRAY********************

CARTESIAN COORDINATES (ANGSTROEM)
---------------------------------
  N      3.944321   -1.539151    0.000114
  C      3.198727   -0.504159    0.000826
  C      1.724168   -0.651323   -0.004280
  N      0.876973    0.302173   -0.004232
  H      4.936508   -1.262946    0.004143
  H      3.566339    0.544172    0.005283
  H      1.364011   -1.692353   -0.008635
  H      1.374652    1.208987    0.000180

 Multiplicity           Mult            ....    1
 Number of Electrons    NEL             ....   30
 Basis Dimension        Dim             ....   76

ORBITAL ENERGIES
----------------

  NO   OCC          E(Eh)            E(eV)
   0   2.0000     -14.340302      -390.2195
   1   2.0000     -14.332953      -390.0195
   2   2.0000     -10.248770      -278.8832
   3   2.0000     -10.237636      -278.5802
   4   2.0000      -0.931698       -25.3528
   5   2.0000      -0.900433       -24.5020
   6   2.0000      -0.673638       -18.3306
   7   2.0000      -0.582900       -15.8615
   8   2.0000      -0.515089       -14.0163
   9   2.0000      -0.467738       -12.7278
  10   2.0000      -0.417318       -11.3558
  11   2.0000      -0.380603       -10.3567
  12   2.0000      -0.306713        -8.3461
  13   2.0000      -0.294767        -8.0210
  14   2.0000      -0.269270        -7.3272
  15   0.0000      -0.064732        -1.7615
  16   0.0000       0.052439         1.4269
  17   0.0000       0.056484         1.5370
  18   0.0000       0.074503         2.0273
  19   0.0000       0.115928         3.1546

-------
TIMINGS
-------

Dispersion correction           -0.008246303
FINAL SINGLE POINT ENERGY      -187.985252573389

DIPOLE MOMENT
-------------
                                X             Y             Z
Electronic contribution:     -0.42681      -0.46113      -0.00274
Nuclear contribution   :      1.30996       1.04142       0.00748
                        -----------------------------------------
Total Dipole Moment    :      0.88315       0.58029       0.00474
                        -----------------------------------------
Magnitude (a.u.)       :      1.05675
Magnitude (Debye)      :      2.68604

                             ****ORCA TERMINATED NORMALLY****
TOTAL RUN TIME: 0 days 0 hours 0 minutes 31 seconds 170 msec
