                         Program Version 4.0.1.2 - RELEASE -
|  1> %pal nprocs 6 end
|  2> %maxcore 1000
|  3> ! b3lyp TIGHTSCF nopop D3BJ
|  4> ! cc-pvdz def2/J RIJCOSX
|  5> ! Opt
|  6>
|  7> %geom
|  8> maxiter 60
|  9> TolE 1e-4
| 10> TolRMSG 2e-3
| 11> TolMaxG 3e-3
| 12> TolRMSD 2e-2
| 13> TolMaxD 3e-2
| 14> end
| 15>
| 16> *xyz 0 1
| 17> C 2.9716 -0.5715 0.0015
| 18> C 1.6519 -0.7835 -0.005
| 19> N 1.0244 -2.0043 0.0002
| 20> N 3.0071 1.9203 -0.0176
| 21> C 3.5924 0.7735 -0.0051
| 22> H 3.671 -1.4 0.0073
| 23> H 0.9384 0.0365 -0.0247
| 24> H 1.6071 -2.7826 0.3002
| 25> H 0.1132 -2.0018 0.4553
| 26> H 1.9897 1.8286 -0.0321
| 27> H 4.696 0.7601 0.0059
| 28> *
| 29>
| 30>
| 31>                          ****END OF INPUT****
 Total Charge           Charge          ....    0
 Multiplicity           Mult            ....    1
 Number of Electrons    NEL             ....   38
Dispersion correction           -0.013093114
FINAL SINGLE POINT ENERGY      -227.279210696000
Dispersion correction            ... done
Dispersion correction           -0.013025300
FINAL SINGLE POINT ENERGY      -227.280705874140
Dispersion correction            ... done
Dispersion correction           -0.013001822
FINAL SINGLE POINT ENERGY      -227.280975552579
Dispersion correction            ... done
                    ***********************HURRAY********************

CARTESIAN COORDINATES (ANGSTROEM)
---------------------------------
  C      2.964498   -0.550061    0.029119
  C      1.631179   -0.782561    0.058226
  N      1.019426   -2.017562    0.000257
  N      3.058963    1.949966   -0.068714
  C      3.580955    0.779817   -0.011927
  H      3.652344   -1.403274    0.039260
  H      0.924558    0.056081    0.068799
  H      1.610879   -2.816910    0.211441
  H      0.107425   -2.083989    0.440745
  H      2.027607    1.886554   -0.100861
  H      4.684966    0.757239    0.019556

 Multiplicity           Mult            ....    1
 Number of Electrons    NEL             ....   38
 Basis Dimension        Dim             ....  100

ORBITAL ENERGIES
----------------

  NO   OCC          E(Eh)            E(eV)
   0   2.0000     -14.358606      -390.7175
   1   2.0000     -14.289432      -388.8352
   2   2.0000     -10.237476      -278.5759
   3   2.0000     -10.212953      -277.9086
   4   2.0000     -10.173895      -276.8458
   5   2.0000      -0.929582       -25.2952
   6   2.0000      -0.874917       -23.8077
   7   2.0000      -0.747255       -20.3338
   8   2.0000      -0.633176       -17.2296
   9   2.0000      -0.565925       -15.3996
  10   2.0000      -0.530411       -14.4332
  11   2.0000      -0.482135       -13.1196
  12   2.0000      -0.450618       -12.2619
  13   2.0000      -0.404457       -11.0058
  14   2.0000      -0.368850       -10.0369
  15   2.0000      -0.364192        -9.9102
  16   2.0000      -0.313538        -8.5318
  17   2.0000      -0.242480        -6.5982
  18   2.0000      -0.209979        -5.7138
  19   0.0000      -0.022019        -0.5992
  20   0.0000       0.044014         1.1977
  21   0.0000       0.058246         1.5849
  22   0.0000       0.092890         2.5277
  23   0.0000       0.099165         2.6984

-------
TIMINGS
-------

Dispersion correction           -0.012998757
FINAL SINGLE POINT ENERGY      -227.281038537525

DIPOLE MOMENT
-------------
                                X             Y             Z
Electronic contribution:      0.35980       0.92576      -0.18909
Nuclear contribution   :     -1.32777      -2.47907       0.58579
                        -----------------------------------------
Total Dipole Moment    :     -0.96798      -1.55331       0.39670
                        -----------------------------------------
Magnitude (a.u.)       :      1.87273
Magnitude (Debye)      :      4.76010

                             ****ORCA TERMINATED NORMALLY****
TOTAL RUN TIME: 0 days 0 hours 0 minutes 39 seconds 298 msec
