                         Program Version 4.0.1.2 - RELEASE -
|  1> %pal nprocs 6 end
|  2> %maxcore 1000
|  3> ! b3lyp TIGHTSCF nopop D3BJ
|  4> ! cc-pvdz def2/J RIJCOSX
|  5> ! Opt
|  6>
|  7> %geom
|  8> maxiter 60
|  9> TolE 1e-4
| 10> TolRMSG 2e-3
| 11> TolMaxG 3e-3
| 12> TolRMSD 2e-2
| 13> TolMaxD 3e-2
| 14> end
| 15>
| 16> *xyz 0 1
| 17> N -1.7696 0.3602 0.012
| 18> C -2.458 -0.8092 0.008
| 19> O -1.8594 -1.879 -0.0021
| 20> C -3.9539 -0.7413 0.0172
| 21> C -4.633 -2.0825 0.0126
| 22> C -4.6616 0.4014 0.0278
| 23> H -2.1882 1.2749 0.0216
| 24> H -0.7608 0.295 0.0065
| 25> H -4.3563 -2.65 -0.8823
| 26> H -5.7245 -1.9903 0.0192
| 27> H -4.3465 -2.661 0.8973
| 28> H -4.2176 1.3878 0.031
| 29> H -5.7481 0.3764 0.0337
| 30> *
| 31>
| 32>
| 33>                          ****END OF INPUT****
 Total Charge           Charge          ....    0
 Multiplicity           Mult            ....    1
 Number of Electrons    NEL             ....   46
Dispersion correction           -0.017203509
FINAL SINGLE POINT ENERGY      -286.474859829393
Dispersion correction            ... done
Dispersion correction           -0.017184722
FINAL SINGLE POINT ENERGY      -286.475583929170
Dispersion correction            ... done
                    ***********************HURRAY********************

CARTESIAN COORDINATES (ANGSTROEM)
---------------------------------
  N     -1.766386    0.367816    0.020913
  C     -2.465061   -0.806961   -0.002142
  O     -1.892107   -1.890256   -0.031213
  C     -3.971134   -0.740339    0.012647
  C     -4.636416   -2.090600    0.017977
  C     -4.662562    0.408355    0.019731
  H     -2.193987    1.280871    0.049794
  H     -0.756087    0.301515    0.013146
  H     -4.334993   -2.674880   -0.866939
  H     -5.733588   -1.996759    0.028636
  H     -4.318366   -2.675671    0.896618
  H     -4.190106    1.394973    0.014104
  H     -5.756708    0.404336    0.029228

 Multiplicity           Mult            ....    1
 Number of Electrons    NEL             ....   46
 Basis Dimension        Dim             ....  119

ORBITAL ENERGIES
----------------

  NO   OCC          E(Eh)            E(eV)
   0   2.0000     -19.098070      -519.6849
   1   2.0000     -14.345721      -390.3669
   2   2.0000     -10.282611      -279.8041
   3   2.0000     -10.205758      -277.7128
   4   2.0000     -10.197255      -277.4814
   5   2.0000     -10.180532      -277.0264
   6   2.0000      -1.026882       -27.9429
   7   2.0000      -0.897124       -24.4120
   8   2.0000      -0.801823       -21.8187
   9   2.0000      -0.688005       -18.7216
  10   2.0000      -0.630078       -17.1453
  11   2.0000      -0.557150       -15.1608
  12   2.0000      -0.525149       -14.2900
  13   2.0000      -0.475421       -12.9369
  14   2.0000      -0.440075       -11.9750
  15   2.0000      -0.424459       -11.5501
  16   2.0000      -0.404790       -11.0149
  17   2.0000      -0.382887       -10.4189
  18   2.0000      -0.368931       -10.0391
  19   2.0000      -0.366982        -9.9861
  20   2.0000      -0.268458        -7.3051
  21   2.0000      -0.260078        -7.0771
  22   2.0000      -0.247315        -6.7298
  23   0.0000      -0.032485        -0.8840
  24   0.0000       0.043856         1.1934
  25   0.0000       0.083245         2.2652
  26   0.0000       0.094227         2.5641
  27   0.0000       0.101714         2.7678

-------
TIMINGS
-------

Dispersion correction           -0.017184883
FINAL SINGLE POINT ENERGY      -286.475732408609

DIPOLE MOMENT
-------------
                                X             Y             Z
Electronic contribution:      4.29001      -0.26237      -0.07490
Nuclear contribution   :     -4.61878       1.50761       0.11238
                        -----------------------------------------
Total Dipole Moment    :     -0.32877       1.24524       0.03748
                        -----------------------------------------
Magnitude (a.u.)       :      1.28846
Magnitude (Debye)      :      3.27500

                             ****ORCA TERMINATED NORMALLY****
TOTAL RUN TIME: 0 days 0 hours 0 minutes 29 seconds 95 msec
