                         Program Version 4.0.1.2 - RELEASE -
|  1> %pal nprocs 6 end
|  2> %maxcore 1000
|  3> ! b3lyp TIGHTSCF nopop D3BJ
|  4> ! cc-pvdz def2/J RIJCOSX
|  5> ! Opt
|  6>
|  7> %geom
|  8> maxiter 60
|  9> TolE 1e-4
| 10> TolRMSG 2e-3
| 11> TolMaxG 3e-3
| 12> TolRMSD 2e-2
| 13> TolMaxD 3e-2
| 14> end
| 15>
| 16> *xyz 0 1
| 17> C 5.1642 -0.9335 0.0086
| 18> N 3.9457 -1.355 0.0026
| 19> C 2.9763 -0.384 -0.0079
| 20> C 1.6726 -0.6938 -0.0145
| 21> N 1.1467 -1.9659 -0.0135
| 22> H 5.4561 0.1315 0.0053
| 23> H 5.9876 -1.6656 0.0166
| 24> H 3.2603 0.6667 -0.0081
| 25> H 0.9163 0.0869 -0.0072
| 26> H 1.8971 -2.6424 0.1504
| 27> H 0.39 -2.0793 0.6549
| 28> *
| 29>
| 30>
| 31>                          ****END OF INPUT****
 Total Charge           Charge          ....    0
 Multiplicity           Mult            ....    1
 Number of Electrons    NEL             ....   38
Dispersion correction           -0.012712555
FINAL SINGLE POINT ENERGY      -227.274622853636
Dispersion correction            ... done
Dispersion correction           -0.012636885
FINAL SINGLE POINT ENERGY      -227.277291973566
Dispersion correction            ... done
Dispersion correction           -0.012654329
FINAL SINGLE POINT ENERGY      -227.277712269765
Dispersion correction            ... done
Dispersion correction           -0.012676083
FINAL SINGLE POINT ENERGY      -227.277832273436
Dispersion correction            ... done
Dispersion correction           -0.012685184
FINAL SINGLE POINT ENERGY      -227.277879402722
Dispersion correction            ... done
                    ***********************HURRAY********************

CARTESIAN COORDINATES (ANGSTROEM)
---------------------------------
  C      5.165377   -0.970067    0.001489
  N      3.926885   -1.286783    0.067582
  C      2.954924   -0.294556    0.022732
  C      1.648245   -0.666135    0.042284
  N      1.222065   -1.976500    0.000625
  H      5.517871    0.073971   -0.106407
  H      5.924857   -1.759589    0.051902
  H      3.238120    0.765593   -0.035662
  H      0.862032    0.094036    0.034323
  H      1.979105   -2.632127    0.189360
  H      0.373419   -2.182243    0.518971

 Multiplicity           Mult            ....    1
 Number of Electrons    NEL             ....   38
 Basis Dimension        Dim             ....  100

ORBITAL ENERGIES
----------------

  NO   OCC          E(Eh)            E(eV)
   0   2.0000     -14.333681      -390.0393
   1   2.0000     -14.322356      -389.7311
   2   2.0000     -10.218498      -278.0595
   3   2.0000     -10.208282      -277.7815
   4   2.0000     -10.185117      -277.1511
   5   2.0000      -0.924843       -25.1663
   6   2.0000      -0.894641       -24.3444
   7   2.0000      -0.727443       -19.7947
   8   2.0000      -0.620609       -16.8876
   9   2.0000      -0.544096       -14.8056
  10   2.0000      -0.526016       -14.3136
  11   2.0000      -0.479256       -13.0412
  12   2.0000      -0.446003       -12.1364
  13   2.0000      -0.408856       -11.1255
  14   2.0000      -0.381885       -10.3916
  15   2.0000      -0.367321        -9.9953
  16   2.0000      -0.315122        -8.5749
  17   2.0000      -0.248942        -6.7741
  18   2.0000      -0.193393        -5.2625
  19   0.0000      -0.018424        -0.5013
  20   0.0000       0.063267         1.7216
  21   0.0000       0.081935         2.2296
  22   0.0000       0.089955         2.4478
  23   0.0000       0.096430         2.6240

-------
TIMINGS
-------

Dispersion correction           -0.012684753
FINAL SINGLE POINT ENERGY      -227.277910662514

DIPOLE MOMENT
-------------
                                X             Y             Z
Electronic contribution:     -0.54496      -0.65174      -0.07930
Nuclear contribution   :      0.12209       0.69170       0.41846
                        -----------------------------------------
Total Dipole Moment    :     -0.42287       0.03996       0.33915
                        -----------------------------------------
Magnitude (a.u.)       :      0.54354
Magnitude (Debye)      :      1.38158

                             ****ORCA TERMINATED NORMALLY****
TOTAL RUN TIME: 0 days 0 hours 0 minutes 56 seconds 948 msec
