                         Program Version 4.0.1.2 - RELEASE -
|  1> %pal nprocs 6 end
|  2> %maxcore 1000
|  3> ! b3lyp TIGHTSCF nopop D3BJ
|  4> ! cc-pvdz def2/J RIJCOSX
|  5> ! Opt
|  6>
|  7> %geom
|  8> maxiter 60
|  9> TolE 1e-4
| 10> TolRMSG 2e-3
| 11> TolMaxG 3e-3
| 12> TolRMSD 2e-2
| 13> TolMaxD 3e-2
| 14> end
| 15>
| 16> *xyz 0 1
| 17> C 1.5933 -0.7308 0.0174
| 18> N 1.035 -1.943 -0.1747
| 19> N 0.9109 0.3569 0.0833
| 20> C -2.4607 1.6392 -0.0865
| 21> O -1.9207 2.734 -0.1693
| 22> N -1.7954 0.4503 0.0121
| 23> C -2.386 -0.7775 0.1048
| 24> O -1.7704 -1.8342 0.1924
| 25> H 2.6935 -0.748 0.1025
| 26> H 1.498 -2.7463 0.2308
| 27> H 0.0179 -1.9751 -0.0501
| 28> H 1.5607 1.1461 0.2152
| 29> H -3.5578 1.5306 -0.0846
| 30> H -0.7699 0.4806 0.0123
| 31> H -3.4877 -0.7416 0.0952
| 32> *
| 33>
| 34>
| 35>                          ****END OF INPUT****
 Total Charge           Charge          ....    0
 Multiplicity           Mult            ....    1
 Number of Electrons    NEL             ....   62
Dispersion correction           -0.019434158
FINAL SINGLE POINT ENERGY      -433.069439822985
Dispersion correction            ... done
Dispersion correction           -0.018945324
FINAL SINGLE POINT ENERGY      -433.072929004563
Dispersion correction            ... done
Dispersion correction           -0.018942666
FINAL SINGLE POINT ENERGY      -433.073405161638
Dispersion correction            ... done
Dispersion correction           -0.018954050
FINAL SINGLE POINT ENERGY      -433.073623837652
Dispersion correction            ... done
Dispersion correction           -0.018959887
FINAL SINGLE POINT ENERGY      -433.073636178951
Dispersion correction            ... done
                    ***********************HURRAY********************

CARTESIAN COORDINATES (ANGSTROEM)
---------------------------------
  C      1.652107   -0.750229    0.053378
  N      1.060779   -1.956029   -0.155878
  N      0.999173    0.359994    0.077526
  C     -2.518672    1.645948   -0.093894
  O     -2.025039    2.744755   -0.193567
  N     -1.795422    0.466676    0.009389
  C     -2.431733   -0.737858    0.110013
  O     -1.876668   -1.823815    0.194085
  H      2.749607   -0.802783    0.164540
  H      1.579374   -2.771593    0.146492
  H      0.039633   -2.001582   -0.050650
  H      1.624033    1.159325    0.193171
  H     -3.622917    1.471569   -0.072805
  H     -0.729731    0.491827    0.008019
  H     -3.543824   -0.655005    0.110983

 Multiplicity           Mult            ....    1
 Number of Electrons    NEL             ....   62
 Basis Dimension        Dim             ....  147

ORBITAL ENERGIES
----------------

  NO   OCC          E(Eh)            E(eV)
   0   2.0000     -19.136516      -520.7311
   1   2.0000     -19.126693      -520.4638
   2   2.0000     -14.361588      -390.7987
   3   2.0000     -14.342393      -390.2764
   4   2.0000     -14.305968      -389.2852
   5   2.0000     -10.305871      -280.4370
   6   2.0000     -10.298358      -280.2326
   7   2.0000     -10.267703      -279.3984
   8   2.0000      -1.059904       -28.8415
   9   2.0000      -1.044722       -28.4283
  10   2.0000      -0.946577       -25.7577
  11   2.0000      -0.929445       -25.2915
  12   2.0000      -0.854997       -23.2657
  13   2.0000      -0.650223       -17.6935
  14   2.0000      -0.632831       -17.2202
  15   2.0000      -0.608109       -16.5475
  16   2.0000      -0.554631       -15.0923
  17   2.0000      -0.521993       -14.2042
  18   2.0000      -0.491158       -13.3651
  19   2.0000      -0.462045       -12.5729
  20   2.0000      -0.448149       -12.1948
  21   2.0000      -0.441461       -12.0128
  22   2.0000      -0.439452       -11.9581
  23   2.0000      -0.422581       -11.4990
  24   2.0000      -0.383696       -10.4409
  25   2.0000      -0.376968       -10.2578
  26   2.0000      -0.303998        -8.2722
  27   2.0000      -0.280849        -7.6423
  28   2.0000      -0.272299        -7.4096
  29   2.0000      -0.257133        -6.9969
  30   2.0000      -0.246661        -6.7120
  31   0.0000      -0.024930        -0.6784
  32   0.0000       0.021053         0.5729
  33   0.0000       0.039840         1.0841
  34   0.0000       0.048585         1.3221
  35   0.0000       0.070764         1.9256

-------
TIMINGS
-------

Dispersion correction           -0.018963319
FINAL SINGLE POINT ENERGY      -433.073721195534

DIPOLE MOMENT
-------------
                                X             Y             Z
Electronic contribution:     -3.15226       1.91037      -0.15363
Nuclear contribution   :      3.81913      -2.77756       0.44698
                        -----------------------------------------
Total Dipole Moment    :      0.66687      -0.86719       0.29334
                        -----------------------------------------
Magnitude (a.u.)       :      1.13260
Magnitude (Debye)      :      2.87884

                             ****ORCA TERMINATED NORMALLY****
TOTAL RUN TIME: 0 days 0 hours 1 minutes 54 seconds 844 msec
