                         Program Version 4.0.1.2 - RELEASE -
|  1> %pal nprocs 6 end
|  2> %maxcore 1000
|  3> ! b3lyp TIGHTSCF nopop D3BJ
|  4> ! cc-pvdz def2/J RIJCOSX
|  5> ! Opt
|  6>
|  7> %geom
|  8> maxiter 60
|  9> TolE 1e-4
| 10> TolRMSG 2e-3
| 11> TolMaxG 3e-3
| 12> TolRMSD 2e-2
| 13> TolMaxD 3e-2
| 14> end
| 15>
| 16> *xyz 0 1
| 17> N -3.8465 1.5837 -0.0013
| 18> H -2.8728 1.7045 0.2736
| 19> H -4.1135 0.6518 0.3129
| 20> H -4.3824 2.2365 0.5688
| 21> *
| 22>
| 23>
| 24>                          ****END OF INPUT****
 Total Charge           Charge          ....    0
 Multiplicity           Mult            ....    1
 Number of Electrons    NEL             ....   10
Dispersion correction           -0.001219394
FINAL SINGLE POINT ENERGY       -56.518834825801
Dispersion correction            ... done
Dispersion correction           -0.001219452
FINAL SINGLE POINT ENERGY       -56.518956375255
Dispersion correction            ... done
Dispersion correction           -0.001219697
FINAL SINGLE POINT ENERGY       -56.519010602512
Dispersion correction            ... done
                    ***********************HURRAY********************

CARTESIAN COORDINATES (ANGSTROEM)
---------------------------------
  N     -3.849269    1.586970   -0.023274
  H     -2.877035    1.702712    0.281448
  H     -4.111228    0.657031    0.321004
  H     -4.377668    2.229787    0.574822

 Multiplicity           Mult            ....    1
 Number of Electrons    NEL             ....   10
 Basis Dimension        Dim             ....   29

ORBITAL ENERGIES
----------------

  NO   OCC          E(Eh)            E(eV)
   0   2.0000     -14.299674      -389.1139
   1   2.0000      -0.838464       -22.8158
   2   2.0000      -0.440165       -11.9775
   3   2.0000      -0.439557       -11.9610
   4   2.0000      -0.252716        -6.8768
   5   0.0000       0.059295         1.6135
   6   0.0000       0.140125         3.8130
   7   0.0000       0.142249         3.8708
   8   0.0000       0.511676        13.9234
   9   0.0000       0.513535        13.9740

-------
TIMINGS
-------

Dispersion correction           -0.001219716
FINAL SINGLE POINT ENERGY       -56.519010380159

DIPOLE MOMENT
-------------
                                X             Y             Z
Electronic contribution:     -0.04635       0.04594      -0.30569
Nuclear contribution   :      0.14028      -0.13218       0.96185
                        -----------------------------------------
Total Dipole Moment    :      0.09393      -0.08624       0.65616
                        -----------------------------------------
Magnitude (a.u.)       :      0.66843
Magnitude (Debye)      :      1.69902

                             ****ORCA TERMINATED NORMALLY****
TOTAL RUN TIME: 0 days 0 hours 0 minutes 15 seconds 962 msec
