                         Program Version 4.0.1.2 - RELEASE -
|  1> %pal nprocs 6 end
|  2> %maxcore 1000
|  3> ! b3lyp TIGHTSCF nopop D3BJ
|  4> ! cc-pvdz def2/J RIJCOSX
|  5> ! Opt
|  6>
|  7> %geom
|  8> maxiter 60
|  9> TolE 1e-4
| 10> TolRMSG 2e-3
| 11> TolMaxG 3e-3
| 12> TolRMSD 2e-2
| 13> TolMaxD 3e-2
| 14> end
| 15>
| 16> *xyz 0 1
| 17> C 1.6387 -0.7085 -0.0016
| 18> N 1.0355 -1.9151 -0.0061
| 19> N 0.9793 0.3908 -0.0021
| 20> H 2.7413 -0.7494 0.0
| 21> H 1.502 -2.6659 0.4872
| 22> H 0.0412 -1.8525 0.1892
| 23> H 1.6317 1.1827 -0.0096
| 24> *
| 25>
| 26>
| 27>                          ****END OF INPUT****
 Total Charge           Charge          ....    0
 Multiplicity           Mult            ....    1
 Number of Electrons    NEL             ....   24
Dispersion correction           -0.005638455
FINAL SINGLE POINT ENERGY      -149.928097893564
Dispersion correction            ... done
Dispersion correction           -0.005617185
FINAL SINGLE POINT ENERGY      -149.929207418102
Dispersion correction            ... done
Dispersion correction           -0.005613186
FINAL SINGLE POINT ENERGY      -149.929384682291
Dispersion correction            ... done
                    ***********************HURRAY********************

CARTESIAN COORDINATES (ANGSTROEM)
---------------------------------
  C      1.647073   -0.684854    0.026653
  N      1.023867   -1.917686   -0.003716
  N      0.984042    0.407077    0.009678
  H      2.751498   -0.763342    0.018430
  H      1.507533   -2.682065    0.455455
  H      0.026776   -1.878569    0.198953
  H      1.628910    1.201539   -0.048454

 Multiplicity           Mult            ....    1
 Number of Electrons    NEL             ....   24
 Basis Dimension        Dim             ....   62

ORBITAL ENERGIES
----------------

  NO   OCC          E(Eh)            E(eV)
   0   2.0000     -14.335477      -390.0882
   1   2.0000     -14.283736      -388.6802
   2   2.0000     -10.246750      -278.8283
   3   2.0000      -0.930262       -25.3137
   4   2.0000      -0.838305       -22.8114
   5   2.0000      -0.595984       -16.2176
   6   2.0000      -0.537088       -14.6149
   7   2.0000      -0.441470       -12.0130
   8   2.0000      -0.439376       -11.9560
   9   2.0000      -0.357803        -9.7363
  10   2.0000      -0.252952        -6.8832
  11   2.0000      -0.234007        -6.3677
  12   0.0000       0.038253         1.0409
  13   0.0000       0.058940         1.6038
  14   0.0000       0.083665         2.2766
  15   0.0000       0.117640         3.2011
  16   0.0000       0.149206         4.0601

-------
TIMINGS
-------

Dispersion correction           -0.005613686
FINAL SINGLE POINT ENERGY      -149.929427428947

DIPOLE MOMENT
-------------
                                X             Y             Z
Electronic contribution:     -0.38596       0.34860      -0.14353
Nuclear contribution   :      0.95809      -1.01060       0.49757
                        -----------------------------------------
Total Dipole Moment    :      0.57213      -0.66200       0.35404
                        -----------------------------------------
Magnitude (a.u.)       :      0.94388
Magnitude (Debye)      :      2.39916

                             ****ORCA TERMINATED NORMALLY****
TOTAL RUN TIME: 0 days 0 hours 0 minutes 28 seconds 1 msec
