                         Program Version 4.0.1.2 - RELEASE -
|  1> %pal nprocs 6 end
|  2> %maxcore 1000
|  3> ! b3lyp TIGHTSCF nopop D3BJ
|  4> ! cc-pvdz def2/J RIJCOSX
|  5> ! Opt
|  6>
|  7> %geom
|  8> maxiter 60
|  9> TolE 1e-4
| 10> TolRMSG 2e-3
| 11> TolMaxG 3e-3
| 12> TolRMSD 2e-2
| 13> TolMaxD 3e-2
| 14> end
| 15>
| 16> *xyz 0 1
| 17> C 3.7391 0.6789 0.008
| 18> C 3.1034 -0.498 0.0089
| 19> C 1.629 -0.6428 -0.0062
| 20> N 0.7477 0.2956 -0.0221
| 21> H 4.8248 0.7102 0.0196
| 22> H 3.2267 1.6335 -0.004
| 23> H 3.6616 -1.4287 0.0212
| 24> H 1.2749 -1.6881 -0.0031
| 25> H 1.1845 1.2194 -0.0235
| 26> *
| 27>
| 28>
| 29>                          ****END OF INPUT****
 Total Charge           Charge          ....    0
 Multiplicity           Mult            ....    1
 Number of Electrons    NEL             ....   30
Dispersion correction           -0.009960023
FINAL SINGLE POINT ENERGY      -171.939511413753
Dispersion correction            ... done
Dispersion correction           -0.009921218
FINAL SINGLE POINT ENERGY      -171.940255923466
Dispersion correction            ... done
                    ***********************HURRAY********************

CARTESIAN COORDINATES (ANGSTROEM)
---------------------------------
  C      3.760265    0.678023    0.008008
  C      3.100716   -0.487739    0.008547
  C      1.620734   -0.635645   -0.006440
  N      0.723675    0.271937   -0.021862
  H      4.853092    0.707189    0.020121
  H      3.244287    1.643745   -0.003891
  H      3.665796   -1.426375    0.021475
  H      1.262919   -1.678957   -0.003401
  H      1.160216    1.207822   -0.023758

 Multiplicity           Mult            ....    1
 Number of Electrons    NEL             ....   30
 Basis Dimension        Dim             ....   81

ORBITAL ENERGIES
----------------

  NO   OCC          E(Eh)            E(eV)
   0   2.0000     -14.316932      -389.5835
   1   2.0000     -10.232299      -278.4350
   2   2.0000     -10.207049      -277.7479
   3   2.0000     -10.205556      -277.7073
   4   2.0000      -0.901777       -24.5386
   5   2.0000      -0.779188       -21.2028
   6   2.0000      -0.648400       -17.6439
   7   2.0000      -0.552987       -15.0475
   8   2.0000      -0.497374       -13.5342
   9   2.0000      -0.463677       -12.6173
  10   2.0000      -0.397938       -10.8284
  11   2.0000      -0.381819       -10.3898
  12   2.0000      -0.353333        -9.6147
  13   2.0000      -0.267212        -7.2712
  14   2.0000      -0.263980        -7.1833
  15   0.0000      -0.054644        -1.4869
  16   0.0000       0.061879         1.6838
  17   0.0000       0.068773         1.8714
  18   0.0000       0.074440         2.0256
  19   0.0000       0.125812         3.4235

-------
TIMINGS
-------

Dispersion correction           -0.009905582
FINAL SINGLE POINT ENERGY      -171.940330894506

DIPOLE MOMENT
-------------
                                X             Y             Z
Electronic contribution:     -1.64181      -0.48274      -0.01494
Nuclear contribution   :      2.54343       0.51924       0.02462
                        -----------------------------------------
Total Dipole Moment    :      0.90161       0.03650       0.00968
                        -----------------------------------------
Magnitude (a.u.)       :      0.90240
Magnitude (Debye)      :      2.29373

                             ****ORCA TERMINATED NORMALLY****
TOTAL RUN TIME: 0 days 0 hours 0 minutes 24 seconds 166 msec
