                         Program Version 4.0.1.2 - RELEASE -
|  1> %pal nprocs 6 end
|  2> %maxcore 1000
|  3> ! b3lyp TIGHTSCF nopop D3BJ
|  4> ! cc-pvdz def2/J RIJCOSX
|  5> ! Opt
|  6>
|  7> %geom
|  8> maxiter 60
|  9> TolE 1e-4
| 10> TolRMSG 2e-3
| 11> TolMaxG 3e-3
| 12> TolRMSD 2e-2
| 13> TolMaxD 3e-2
| 14> end
| 15>
| 16> *xyz 0 1
| 17> C 3.0405 -0.8001 -0.0337
| 18> C 1.7193 -0.6266 -0.2081
| 19> N 0.9723 -1.7499 -0.4809
| 20> N 1.0593 0.575 -0.1365
| 21> C 1.6819 1.6749 0.113
| 22> N -1.8565 0.4652 0.0996
| 23> C -2.4623 -0.7462 0.1772
| 24> O -1.7967 -1.7674 0.3199
| 25> C -3.9548 -0.7915 0.0797
| 26> C -4.5392 -2.173 0.1749
| 27> C -4.7351 0.2918 -0.0777
| 28> H 3.4841 -1.7871 -0.124
| 29> H 3.7389 -0.0046 0.1803
| 30> H 1.3286 -2.589 -0.0425
| 31> H -0.0099 -1.6158 -0.2174
| 32> H 2.7626 1.7905 0.289
| 33> H 1.0979 2.6082 0.152
| 34> H -2.3176 1.3072 -0.1985
| 35> H -0.8368 0.4613 0.0307
| 36> H -4.1715 -2.8038 -0.642
| 37> H -5.6329 -2.1613 0.1127
| 38> H -4.2691 -2.6381 1.1298
| 39> H -4.3559 1.3035 -0.1426
| 40> H -5.8151 0.1867 -0.1512
| 41> *
| 42>
| 43>
| 44>                          ****END OF INPUT****
 Total Charge           Charge          ....    0
 Multiplicity           Mult            ....    1
 Number of Electrons    NEL             ....   84
Dispersion correction           -0.036329760
FINAL SINGLE POINT ENERGY      -513.755803253683
Dispersion correction            ... done
Dispersion correction           -0.035869534
FINAL SINGLE POINT ENERGY      -513.763429174998
Dispersion correction            ... done
Dispersion correction           -0.035783476
FINAL SINGLE POINT ENERGY      -513.765646167509
Dispersion correction            ... done
FINAL SINGLE POINT ENERGY      -513.766634230277
FINAL SINGLE POINT ENERGY      -513.767536245124
FINAL SINGLE POINT ENERGY      -513.768566490754
FINAL SINGLE POINT ENERGY      -513.769509905400
FINAL SINGLE POINT ENERGY      -513.770163048426
FINAL SINGLE POINT ENERGY      -513.770541661902
Dispersion correction            ... done
Dispersion correction           -0.035856516
FINAL SINGLE POINT ENERGY      -513.770736116352
Dispersion correction            ... done
Dispersion correction           -0.035827350
FINAL SINGLE POINT ENERGY      -513.770839964849
Dispersion correction            ... done
                    ***********************HURRAY********************

CARTESIAN COORDINATES (ANGSTROEM)
---------------------------------
  C      2.984765   -0.789091    0.608672
  C      1.785035   -0.695736   -0.007073
  N      1.073020   -1.730220   -0.595980
  N      1.085184    0.540767   -0.113817
  C      1.712249    1.600755   -0.432494
  N     -1.909896    0.553981    0.039098
  C     -2.480636   -0.675792    0.027704
  O     -1.813577   -1.716378   -0.029089
  C     -3.982015   -0.773514    0.130097
  C     -4.521212   -2.166168   -0.040167
  C     -4.756975    0.286090    0.403413
  H      3.459052   -1.760586    0.757611
  H      3.486940    0.090595    1.006472
  H      1.456489   -2.645278   -0.371761
  H      0.063152   -1.703766   -0.396357
  H      2.787370    1.611086   -0.679239
  H      1.163583    2.551623   -0.462714
  H     -2.457990    1.366503   -0.207277
  H     -0.884915    0.599856   -0.043844
  H     -4.316251   -2.547186   -1.054167
  H     -5.604458   -2.199773    0.147283
  H     -4.007104   -2.852589    0.649000
  H     -4.347622    1.282295    0.582414
  H     -5.842187    0.182425    0.485915

 Multiplicity           Mult            ....    1
 Number of Electrons    NEL             ....   84
 Basis Dimension        Dim             ....  219

ORBITAL ENERGIES
----------------

  NO   OCC          E(Eh)            E(eV)
   0   2.0000     -19.105173      -519.8782
   1   2.0000     -14.348592      -390.4450
   2   2.0000     -14.334749      -390.0683
   3   2.0000     -14.306154      -389.2902
   4   2.0000     -10.283960      -279.8408
   5   2.0000     -10.243037      -278.7272
   6   2.0000     -10.238776      -278.6113
   7   2.0000     -10.204433      -277.6767
   8   2.0000     -10.194960      -277.4190
   9   2.0000     -10.179697      -277.0036
  10   2.0000     -10.153595      -276.2934
  11   2.0000      -1.028241       -27.9799
  12   2.0000      -0.952601       -25.9216
  13   2.0000      -0.893780       -24.3210
  14   2.0000      -0.872176       -23.7331
  15   2.0000      -0.800645       -21.7867
  16   2.0000      -0.718257       -19.5448
  17   2.0000      -0.687892       -18.7185
  18   2.0000      -0.649659       -17.6781
  19   2.0000      -0.625896       -17.0315
  20   2.0000      -0.550279       -14.9739
  21   2.0000      -0.545001       -14.8302
  22   2.0000      -0.520020       -14.1505
  23   2.0000      -0.506541       -13.7837
  24   2.0000      -0.482148       -13.1199
  25   2.0000      -0.473391       -12.8816
  26   2.0000      -0.446606       -12.1528
  27   2.0000      -0.439609       -11.9624
  28   2.0000      -0.423578       -11.5261
  29   2.0000      -0.420178       -11.4336
  30   2.0000      -0.404814       -11.0156
  31   2.0000      -0.385337       -10.4856
  32   2.0000      -0.382508       -10.4086
  33   2.0000      -0.369084       -10.0433
  34   2.0000      -0.366297        -9.9675
  35   2.0000      -0.361723        -9.8430
  36   2.0000      -0.308759        -8.4017
  37   2.0000      -0.272799        -7.4232
  38   2.0000      -0.269195        -7.3252
  39   2.0000      -0.260252        -7.0818
  40   2.0000      -0.251461        -6.8426
  41   2.0000      -0.194589        -5.2950
  42   0.0000      -0.037841        -1.0297
  43   0.0000      -0.032954        -0.8967
  44   0.0000       0.053296         1.4503
  45   0.0000       0.069783         1.8989
  46   0.0000       0.079538         2.1643

-------
TIMINGS
-------

Dispersion correction           -0.035831075
FINAL SINGLE POINT ENERGY      -513.770837463865

DIPOLE MOMENT
-------------
                                X             Y             Z
Electronic contribution:      1.74485       0.39859      -0.57407
Nuclear contribution   :     -2.17109       0.70289       0.47456
                        -----------------------------------------
Total Dipole Moment    :     -0.42624       1.10148      -0.09950
                        -----------------------------------------
Magnitude (a.u.)       :      1.18526
Magnitude (Debye)      :      3.01268

                             ****ORCA TERMINATED NORMALLY****
TOTAL RUN TIME: 0 days 0 hours 8 minutes 20 seconds 553 msec
