                         Program Version 4.0.1.2 - RELEASE -
|  1> %pal nprocs 6 end
|  2> %maxcore 1000
|  3> ! b3lyp TIGHTSCF nopop D3BJ
|  4> ! cc-pvdz def2/J RIJCOSX
|  5> ! Opt
|  6>
|  7> %geom
|  8> maxiter 60
|  9> TolE 1e-4
| 10> TolRMSG 2e-3
| 11> TolMaxG 3e-3
| 12> TolRMSD 2e-2
| 13> TolMaxD 3e-2
| 14> end
| 15>
| 16> *xyz 0 1
| 17> C 3.0541 -0.7094 0.0354
| 18> C 1.7207 -0.6567 -0.1171
| 19> N 1.0667 -1.8455 -0.3374
| 20> N 0.9586 0.4837 -0.0644
| 21> C 1.4833 1.6437 0.1406
| 22> N -3.8384 1.6195 -0.0179
| 23> C -2.4879 1.5899 -0.1316
| 24> O -1.8715 2.6222 -0.3735
| 25> N -1.8709 0.3846 0.0315
| 26> C -2.3984 -0.8504 0.3039
| 27> O -1.7205 -1.8642 0.4307
| 28> H 3.5802 -1.6568 -0.0337
| 29> H 3.6834 0.1498 0.2127
| 30> H 1.5244 -2.6482 0.0776
| 31> H 0.0893 -1.7959 -0.0357
| 32> H 2.5517 1.8571 0.2932
| 33> H 0.8203 2.5251 0.1694
| 34> H -4.3556 0.8918 -0.4912
| 35> H -4.2082 2.5424 -0.2188
| 36> H -0.8556 0.4053 -0.0718
| 37> H -3.4922 -0.8641 0.42
| 38> *
| 39>
| 40>
| 41>                          ****END OF INPUT****
 Total Charge           Charge          ....    0
 Multiplicity           Mult            ....    1
 Number of Electrons    NEL             ....   84
Dispersion correction           -0.032478040
FINAL SINGLE POINT ENERGY      -565.745594747212
Dispersion correction            ... done
Dispersion correction           -0.032063327
FINAL SINGLE POINT ENERGY      -565.756597186720
Dispersion correction            ... done
Dispersion correction           -0.032175737
FINAL SINGLE POINT ENERGY      -565.759235583367
Dispersion correction            ... done
FINAL SINGLE POINT ENERGY      -565.760036123263
FINAL SINGLE POINT ENERGY      -565.760456983923
FINAL SINGLE POINT ENERGY      -565.761006297790
FINAL SINGLE POINT ENERGY      -565.761670551980
FINAL SINGLE POINT ENERGY      -565.761749995352
FINAL SINGLE POINT ENERGY      -565.762337569482
FINAL SINGLE POINT ENERGY      -565.762544285724
FINAL SINGLE POINT ENERGY      -565.762662637353
FINAL SINGLE POINT ENERGY      -565.762546631219
Dispersion correction            ... done
Dispersion correction           -0.032168589
FINAL SINGLE POINT ENERGY      -565.762693422300
Dispersion correction            ... done
Dispersion correction           -0.032170892
FINAL SINGLE POINT ENERGY      -565.762760144597
Dispersion correction            ... done
                    ***********************HURRAY********************

CARTESIAN COORDINATES (ANGSTROEM)
---------------------------------
  C      3.018890   -0.633828    0.585796
  C      1.801333   -0.712115    0.001134
  N      1.198875   -1.857253   -0.501048
  N      0.961408    0.426703   -0.135856
  C      1.424459    1.564210   -0.473389
  N     -3.816072    1.671421    0.222828
  C     -2.439739    1.638191    0.147241
  O     -1.747014    2.641751    0.223667
  N     -1.849103    0.375365    0.018005
  C     -2.445756   -0.849356    0.101170
  O     -1.847043   -1.907786   -0.016315
  H      3.616103   -1.530999    0.763207
  H      3.414279    0.320924    0.928509
  H      1.634303   -2.714045   -0.170454
  H      0.181940   -1.889369   -0.378375
  H      2.483606    1.723100   -0.734008
  H      0.725549    2.410324   -0.493206
  H     -4.351504    0.965881   -0.270281
  H     -4.188342    2.612563    0.143352
  H     -0.801702    0.393182   -0.042687
  H     -3.540969   -0.824963    0.302611

 Multiplicity           Mult            ....    1
 Number of Electrons    NEL             ....   84
 Basis Dimension        Dim             ....  204

ORBITAL ENERGIES
----------------

  NO   OCC          E(Eh)            E(eV)
   0   2.0000     -19.134495      -520.6761
   1   2.0000     -19.116328      -520.1817
   2   2.0000     -14.362656      -390.8278
   3   2.0000     -14.362514      -390.8239
   4   2.0000     -14.349144      -390.4601
   5   2.0000     -14.316858      -389.5815
   6   2.0000     -10.327527      -281.0263
   7   2.0000     -10.306787      -280.4619
   8   2.0000     -10.244076      -278.7555
   9   2.0000     -10.240498      -278.6581
  10   2.0000     -10.157709      -276.4053
  11   2.0000      -1.065471       -28.9929
  12   2.0000      -1.048013       -28.5179
  13   2.0000      -0.956119       -26.0173
  14   2.0000      -0.937912       -25.5219
  15   2.0000      -0.902167       -24.5492
  16   2.0000      -0.878921       -23.9167
  17   2.0000      -0.723468       -19.6866
  18   2.0000      -0.662625       -18.0309
  19   2.0000      -0.652081       -17.7440
  20   2.0000      -0.620240       -16.8776
  21   2.0000      -0.568969       -15.4824
  22   2.0000      -0.545353       -14.8398
  23   2.0000      -0.520215       -14.1558
  24   2.0000      -0.508318       -13.8320
  25   2.0000      -0.491920       -13.3858
  26   2.0000      -0.473183       -12.8760
  27   2.0000      -0.455492       -12.3946
  28   2.0000      -0.448091       -12.1932
  29   2.0000      -0.431465       -11.7408
  30   2.0000      -0.430101       -11.7036
  31   2.0000      -0.418858       -11.3977
  32   2.0000      -0.397339       -10.8121
  33   2.0000      -0.388069       -10.5599
  34   2.0000      -0.367392        -9.9972
  35   2.0000      -0.313408        -8.5283
  36   2.0000      -0.297515        -8.0958
  37   2.0000      -0.286126        -7.7859
  38   2.0000      -0.278305        -7.5731
  39   2.0000      -0.272905        -7.4261
  40   2.0000      -0.265498        -7.2246
  41   2.0000      -0.198943        -5.4135
  42   0.0000      -0.040046        -1.0897
  43   0.0000      -0.021871        -0.5951
  44   0.0000       0.040344         1.0978
  45   0.0000       0.067483         1.8363
  46   0.0000       0.068421         1.8618

-------
TIMINGS
-------

Dispersion correction           -0.032173908
FINAL SINGLE POINT ENERGY      -565.762740971722

DIPOLE MOMENT
-------------
                                X             Y             Z
Electronic contribution:     -5.53998       0.92810      -0.18282
Nuclear contribution   :      4.58564      -0.63468      -0.08265
                        -----------------------------------------
Total Dipole Moment    :     -0.95433       0.29342      -0.26548
                        -----------------------------------------
Magnitude (a.u.)       :      1.03311
Magnitude (Debye)      :      2.62597

                             ****ORCA TERMINATED NORMALLY****
TOTAL RUN TIME: 0 days 0 hours 8 minutes 30 seconds 558 msec
