                         Program Version 4.0.1.2 - RELEASE -
|  1> %pal nprocs 6 end
|  2> %maxcore 1000
|  3> ! b3lyp TIGHTSCF nopop D3BJ
|  4> ! cc-pvdz def2/J RIJCOSX
|  5> ! Opt
|  6>
|  7> %geom
|  8> maxiter 60
|  9> TolE 1e-4
| 10> TolRMSG 2e-3
| 11> TolMaxG 3e-3
| 12> TolRMSD 2e-2
| 13> TolMaxD 3e-2
| 14> end
| 15>
| 16> *xyz 0 1
| 17> C 3.0743 -0.5998 -0.0104
| 18> C 1.6993 -0.6772 -0.0057
| 19> N 1.0605 -1.9162 -0.0134
| 20> N 0.9104 0.4032 0.0041
| 21> C 1.5376 1.5897 0.0104
| 22> N 2.8641 1.7852 0.0075
| 23> C 3.6095 0.6672 -0.0031
| 24> H 3.7 -1.4805 -0.032
| 25> H 1.3722 -2.5052 0.75
| 26> H 0.06 -1.7378 0.0356
| 27> H 0.9111 2.4749 0.0163
| 28> H 4.6841 0.8228 -0.0114
| 29> *
| 30>
| 31>
| 32>                          ****END OF INPUT****
 Total Charge           Charge          ....    0
 Multiplicity           Mult            ....    1
 Number of Electrons    NEL             ....   50
Dispersion correction           -0.019180574
FINAL SINGLE POINT ENERGY      -319.543524112960
Dispersion correction            ... done
Dispersion correction           -0.019088869
FINAL SINGLE POINT ENERGY      -319.546413457138
Dispersion correction            ... done
Dispersion correction           -0.019052908
FINAL SINGLE POINT ENERGY      -319.547652443913
Dispersion correction            ... done
FINAL SINGLE POINT ENERGY      -319.548280041400
Dispersion correction            ... done
Dispersion correction           -0.019064107
FINAL SINGLE POINT ENERGY      -319.548516422943
Dispersion correction            ... done
Dispersion correction           -0.019073223
FINAL SINGLE POINT ENERGY      -319.548647216601
Dispersion correction            ... done
                    ***********************HURRAY********************

CARTESIAN COORDINATES (ANGSTROEM)
---------------------------------
  C      3.064664   -0.585464    0.046862
  C      1.657422   -0.662095    0.036274
  N      0.991132   -1.863669    0.011102
  N      0.900427    0.449312    0.005713
  C      1.558253    1.612993   -0.032309
  N      2.880313    1.811987   -0.039161
  C      3.615448    0.684102    0.005273
  H      3.685784   -1.482011    0.083771
  H      1.481866   -2.663914    0.394485
  H      0.015115   -1.799907    0.285656
  H      0.929485    2.509779   -0.057905
  H      4.703190    0.815187    0.008140

 Multiplicity           Mult            ....    1
 Number of Electrons    NEL             ....   50
 Basis Dimension        Dim             ....  123

ORBITAL ENERGIES
----------------

  NO   OCC          E(Eh)            E(eV)
   0   2.0000     -14.351983      -390.5373
   1   2.0000     -14.319762      -389.6605
   2   2.0000     -14.313855      -389.4998
   3   2.0000     -10.270056      -279.4624
   4   2.0000     -10.243989      -278.7531
   5   2.0000     -10.228638      -278.3354
   6   2.0000     -10.194439      -277.4048
   7   2.0000      -0.984316       -26.7846
   8   2.0000      -0.926849       -25.2208
   9   2.0000      -0.860143       -23.4057
  10   2.0000      -0.774294       -21.0696
  11   2.0000      -0.651929       -17.7399
  12   2.0000      -0.638849       -17.3840
  13   2.0000      -0.542191       -14.7538
  14   2.0000      -0.536761       -14.6060
  15   2.0000      -0.473550       -12.8860
  16   2.0000      -0.463384       -12.6093
  17   2.0000      -0.439149       -11.9498
  18   2.0000      -0.423196       -11.5157
  19   2.0000      -0.395387       -10.7590
  20   2.0000      -0.347285        -9.4501
  21   2.0000      -0.290257        -7.8983
  22   2.0000      -0.288315        -7.8454
  23   2.0000      -0.246226        -6.7001
  24   2.0000      -0.238046        -6.4776
  25   0.0000      -0.022275        -0.6061
  26   0.0000      -0.006933        -0.1887
  27   0.0000       0.051578         1.4035
  28   0.0000       0.079984         2.1765
  29   0.0000       0.106138         2.8882

-------
TIMINGS
-------

Dispersion correction           -0.019073080
FINAL SINGLE POINT ENERGY      -319.548718393484

DIPOLE MOMENT
-------------
                                X             Y             Z
Electronic contribution:     -0.40637       1.90274      -0.22857
Nuclear contribution   :      0.44198      -3.22552       0.61638
                        -----------------------------------------
Total Dipole Moment    :      0.03562      -1.32278       0.38781
                        -----------------------------------------
Magnitude (a.u.)       :      1.37891
Magnitude (Debye)      :      3.50492

                             ****ORCA TERMINATED NORMALLY****
TOTAL RUN TIME: 0 days 0 hours 1 minutes 8 seconds 21 msec
