                         Program Version 4.0.1.2 - RELEASE -
|  1> %pal nprocs 6 end
|  2> %maxcore 1000
|  3> ! b3lyp TIGHTSCF nopop D3BJ
|  4> ! cc-pvdz def2/J RIJCOSX
|  5> ! Opt
|  6>
|  7> %geom
|  8> maxiter 60
|  9> TolE 1e-4
| 10> TolRMSG 2e-3
| 11> TolMaxG 3e-3
| 12> TolRMSD 2e-2
| 13> TolMaxD 3e-2
| 14> end
| 15>
| 16> *xyz 0 1
| 17> C 3.0438 -0.6005 -0.0004
| 18> C 1.7187 -0.7466 -0.0053
| 19> N 1.0375 -1.9307 -0.0107
| 20> H 3.7118 -1.4544 -0.005
| 21> H 3.4903 0.3883 -0.0047
| 22> H 1.0699 0.1283 -0.0148
| 23> H 1.5969 -2.7324 0.2704
| 24> H 0.1424 -1.8926 0.4715
| 25> *
| 26>
| 27>
| 28>                          ****END OF INPUT****
 Total Charge           Charge          ....    0
 Multiplicity           Mult            ....    1
 Number of Electrons    NEL             ....   24
Dispersion correction           -0.006904096
FINAL SINGLE POINT ENERGY      -133.871611477618
Dispersion correction            ... done
Dispersion correction           -0.006862174
FINAL SINGLE POINT ENERGY      -133.872842310505
Dispersion correction            ... done
Dispersion correction           -0.006857856
FINAL SINGLE POINT ENERGY      -133.872897442794
Dispersion correction            ... done
                    ***********************HURRAY********************

CARTESIAN COORDINATES (ANGSTROEM)
---------------------------------
  C      3.057162   -0.588134    0.006721
  C      1.723173   -0.734366    0.019474
  N      1.020250   -1.938379   -0.016414
  H      3.729033   -1.451787    0.032900
  H      3.504878    0.403706   -0.055109
  H      1.074353    0.148838   -0.007184
  H      1.569544   -2.754815    0.242458
  H      0.132907   -1.925662    0.478155

 Multiplicity           Mult            ....    1
 Number of Electrons    NEL             ....   24
 Basis Dimension        Dim             ....   67

ORBITAL ENERGIES
----------------

  NO   OCC          E(Eh)            E(eV)
   0   2.0000     -14.329469      -389.9247
   1   2.0000     -10.210210      -277.8340
   2   2.0000     -10.152656      -276.2678
   3   2.0000      -0.899584       -24.4789
   4   2.0000      -0.719207       -19.5706
   5   2.0000      -0.572216       -15.5708
   6   2.0000      -0.509145       -13.8545
   7   2.0000      -0.454846       -12.3770
   8   2.0000      -0.399935       -10.8828
   9   2.0000      -0.356780        -9.7085
  10   2.0000      -0.330169        -8.9843
  11   2.0000      -0.200878        -5.4662
  12   0.0000       0.045211         1.2302
  13   0.0000       0.063020         1.7149
  14   0.0000       0.088458         2.4071
  15   0.0000       0.111099         3.0232
  16   0.0000       0.150173         4.0864

-------
TIMINGS
-------

Dispersion correction           -0.006858285
FINAL SINGLE POINT ENERGY      -133.872913316224

DIPOLE MOMENT
-------------
                                X             Y             Z
Electronic contribution:     -0.90631      -0.36240      -0.15878
Nuclear contribution   :      0.47790       0.06059       0.56318
                        -----------------------------------------
Total Dipole Moment    :     -0.42841      -0.30181       0.40440
                        -----------------------------------------
Magnitude (a.u.)       :      0.66194
Magnitude (Debye)      :      1.68252

                             ****ORCA TERMINATED NORMALLY****
TOTAL RUN TIME: 0 days 0 hours 0 minutes 26 seconds 42 msec
