                         Program Version 4.0.1.2 - RELEASE -
|  1> %pal nprocs 3 end
|  2> %maxcore 1000
|  3> ! b3lyp TIGHTSCF D3BJ
|  4> ! cc-pvdz def2/J RIJCOSX
|  5> ! Opt
|  6>
|  7> %geom
|  8> maxiter 60
|  9> TolE 1e-4
| 10> TolRMSG 2e-3
| 11> TolMaxG 3e-3
| 12> TolRMSD 2e-2
| 13> TolMaxD 3e-2
| 14> end
| 15>
| 16> *xyz 0 1
| 17> N -3.8646 1.5932 -0.0006
| 18> C -4.5051 0.3848 0.0009
| 19> C -3.9189 -0.8163 0.0012
| 20> C -4.668 -2.1083 0.0028
| 21> H -4.3725 2.3266 0.4888
| 22> H -5.5905 0.4773 -0.0036
| 23> H -4.4071 -2.6914 -0.8856
| 24> H -5.7523 -1.9588 0.0067
| 25> H -4.4009 -2.6926 0.8887
| 26> H -2.8881 1.5438 0.2795
| 27> H -2.8347 -0.8877 -0.007
| 28> *
| 29>
| 30>
| 31>                          ****END OF INPUT****
 Total Charge           Charge          ....    0
 Multiplicity           Mult            ....    1
 Number of Electrons    NEL             ....   32
Dispersion correction           -0.011164549
FINAL SINGLE POINT ENERGY      -173.163021758741
Dispersion correction            ... done
Dispersion correction           -0.011071561
FINAL SINGLE POINT ENERGY      -173.165008030358
Dispersion correction            ... done
Dispersion correction           -0.011061518
FINAL SINGLE POINT ENERGY      -173.165168098216
Dispersion correction            ... done
Dispersion correction           -0.011064828
FINAL SINGLE POINT ENERGY      -173.165236800156
Dispersion correction            ... done
                    ***********************HURRAY********************

CARTESIAN COORDINATES (ANGSTROEM)
---------------------------------
  N     -3.871451    1.632274   -0.042685
  C     -4.506785    0.384682    0.039626
  C     -3.915972   -0.821271    0.048771
  C     -4.664553   -2.121986   -0.005123
  H     -4.336513    2.360203    0.495236
  H     -5.602135    0.449918    0.020673
  H     -4.418964   -2.705701   -0.912505
  H     -5.755456   -1.955209   -0.005916
  H     -4.427771   -2.778893    0.852701
  H     -2.884618    1.602760    0.209600
  H     -2.818482   -0.876177    0.071422

 Multiplicity           Mult            ....    1
 Number of Electrons    NEL             ....   32
 Basis Dimension        Dim             ....   91

ORBITAL ENERGIES
----------------

  NO   OCC          E(Eh)            E(eV)
   0   2.0000     -14.325213      -389.8089
   1   2.0000     -10.202951      -277.6364
   2   2.0000     -10.173438      -276.8333
   3   2.0000     -10.159919      -276.4655
   4   2.0000      -0.894424       -24.3385
   5   2.0000      -0.755252       -20.5514
   6   2.0000      -0.655051       -17.8248
   7   2.0000      -0.557579       -15.1725
   8   2.0000      -0.491361       -13.3706
   9   2.0000      -0.465768       -12.6742
  10   2.0000      -0.393454       -10.7064
  11   2.0000      -0.389748       -10.6056
  12   2.0000      -0.371995       -10.1225
  13   2.0000      -0.340260        -9.2589
  14   2.0000      -0.320021        -8.7082
  15   2.0000      -0.192450        -5.2368
  16   0.0000       0.048887         1.3303
  17   0.0000       0.065926         1.7939
  18   0.0000       0.081894         2.2284
  19   0.0000       0.088636         2.4119
  20   0.0000       0.140682         3.8282

MULLIKEN ATOMIC CHARGES
-----------------------
   0 N :   -0.103758
   1 C :    0.012232
   2 C :   -0.101000
   3 C :    0.022604
   4 H :    0.087418
   5 H :   -0.010055
   6 H :    0.024763
   7 H :    0.010112
   8 H :    0.022614
   9 H :    0.076697
  10 H :   -0.041626
Sum of atomic charges:    0.0000000

LOEWDIN ATOMIC CHARGES
----------------------
   0 N :    0.027399
   1 C :   -0.064394
   2 C :   -0.111039
   3 C :   -0.071173
   4 H :    0.050871
   5 H :    0.019614
   6 H :    0.029605
   7 H :    0.028526
   8 H :    0.028662
   9 H :    0.050008
  10 H :    0.011921

  Mayer bond orders larger than 0.1
B(  0-N ,  1-C ) :   1.2052 B(  0-N ,  4-H ) :   0.9725 B(  0-N ,  9-H ) :   0.9747
B(  1-C ,  2-C ) :   1.8642 B(  1-C ,  5-H ) :   0.9407 B(  2-C ,  3-C ) :   1.1195
B(  2-C , 10-H ) :   0.9391 B(  3-C ,  6-H ) :   0.9527 B(  3-C ,  7-H ) :   0.9611
B(  3-C ,  8-H ) :   0.9556

Dispersion correction           -0.011072589
FINAL SINGLE POINT ENERGY      -173.165256553378

DIPOLE MOMENT
-------------
                                X             Y             Z
Electronic contribution:      0.62102       2.66538      -0.14213
Nuclear contribution   :     -0.54800      -2.29418       0.55461
                        -----------------------------------------
Total Dipole Moment    :      0.07302       0.37120       0.41248
                        -----------------------------------------
Magnitude (a.u.)       :      0.55970
Magnitude (Debye)      :      1.42263

                             ****ORCA TERMINATED NORMALLY****
TOTAL RUN TIME: 0 days 0 hours 3 minutes 34 seconds 36 msec
