                         Program Version 4.0.1.2 - RELEASE -
|  1> %pal nprocs 6 end
|  2> %maxcore 1000
|  3> ! b3lyp TIGHTSCF nopop D3BJ
|  4> ! cc-pvdz def2/J RIJCOSX
|  5> ! Opt
|  6>
|  7> %geom
|  8> maxiter 60
|  9> TolE 1e-4
| 10> TolRMSG 2e-3
| 11> TolMaxG 3e-3
| 12> TolRMSD 2e-2
| 13> TolMaxD 3e-2
| 14> end
| 15>
| 16> *xyz 0 1
| 17> N 3.9007 -1.5683 0.0113
| 18> C 3.1539 -0.5142 -0.0054
| 19> C 1.6439 -0.661 -0.0095
| 20> N 1.1124 -1.913 0.0039
| 21> N 0.8856 0.3845 -0.0247
| 22> H 4.888 -1.2869 0.0001
| 23> H 3.5484 0.5134 -0.0233
| 24> H 1.7547 -2.6349 0.3205
| 25> H 0.1724 -1.9621 0.3737
| 26> H 1.4336 1.2483 -0.0439
| 27> *
| 28>
| 29>
| 30>                          ****END OF INPUT****
 Total Charge           Charge          ....    0
 Multiplicity           Mult            ....    1
 Number of Electrons    NEL             ....   38
Dispersion correction           -0.012018478
FINAL SINGLE POINT ENERGY      -243.335736539345
Dispersion correction            ... done
Dispersion correction           -0.012097509
FINAL SINGLE POINT ENERGY      -243.337932885577
Dispersion correction            ... done
Dispersion correction           -0.012128097
FINAL SINGLE POINT ENERGY      -243.338321664427
Dispersion correction            ... done
Dispersion correction           -0.012116005
FINAL SINGLE POINT ENERGY      -243.338403435939
Dispersion correction            ... done
                    ***********************HURRAY********************

CARTESIAN COORDINATES (ANGSTROEM)
---------------------------------
  N      3.845049   -1.572601    0.097011
  C      3.132280   -0.525647   -0.039136
  C      1.638252   -0.614518    0.008646
  N      1.154630   -1.898114   -0.000589
  N      0.868891    0.415869    0.045075
  H      4.847074   -1.346504    0.062005
  H      3.528450    0.498994   -0.173203
  H      1.830902   -2.605725    0.269978
  H      0.207391   -2.013382    0.342578
  H      1.440681    1.267428   -0.009665

 Multiplicity           Mult            ....    1
 Number of Electrons    NEL             ....   38
 Basis Dimension        Dim             ....   95

ORBITAL ENERGIES
----------------

  NO   OCC          E(Eh)            E(eV)
   0   2.0000     -14.339510      -390.1979
   1   2.0000     -14.328910      -389.9095
   2   2.0000     -14.292775      -388.9262
   3   2.0000     -10.252292      -278.9791
   4   2.0000     -10.248587      -278.8782
   5   2.0000      -0.951293       -25.8860
   6   2.0000      -0.903853       -24.5951
   7   2.0000      -0.844857       -22.9897
   8   2.0000      -0.662196       -18.0193
   9   2.0000      -0.567850       -15.4520
  10   2.0000      -0.532781       -14.4977
  11   2.0000      -0.498790       -13.5728
  12   2.0000      -0.444021       -12.0824
  13   2.0000      -0.430403       -11.7119
  14   2.0000      -0.392449       -10.6791
  15   2.0000      -0.319357        -8.6902
  16   2.0000      -0.294277        -8.0077
  17   2.0000      -0.257597        -7.0096
  18   2.0000      -0.234231        -6.3737
  19   0.0000      -0.047511        -1.2928
  20   0.0000       0.051465         1.4004
  21   0.0000       0.080339         2.1861
  22   0.0000       0.089909         2.4466
  23   0.0000       0.100549         2.7361

-------
TIMINGS
-------

Dispersion correction           -0.012111361
FINAL SINGLE POINT ENERGY      -243.338421662775

DIPOLE MOMENT
-------------
                                X             Y             Z
Electronic contribution:     -0.23616      -0.09356      -0.12160
Nuclear contribution   :      1.12435       0.06449       0.32225
                        -----------------------------------------
Total Dipole Moment    :      0.88819      -0.02907       0.20065
                        -----------------------------------------
Magnitude (a.u.)       :      0.91103
Magnitude (Debye)      :      2.31566

                             ****ORCA TERMINATED NORMALLY****
TOTAL RUN TIME: 0 days 0 hours 0 minutes 52 seconds 4 msec
