                         Program Version 4.0.1.2 - RELEASE -
|  1> %pal nprocs 6 end
|  2> %maxcore 1000
|  3> ! b3lyp TIGHTSCF nopop D3BJ
|  4> ! cc-pvdz def2/J RIJCOSX
|  5> ! Opt
|  6>
|  7> %geom
|  8> maxiter 60
|  9> TolE 1e-4
| 10> TolRMSG 2e-3
| 11> TolMaxG 3e-3
| 12> TolRMSD 2e-2
| 13> TolMaxD 3e-2
| 14> end
| 15>
| 16> *xyz 0 1
| 17> N 2.8039 1.8102 0.0252
| 18> C 3.6341 0.8238 0.0189
| 19> N 4.0066 -1.5884 -0.0236
| 20> C 3.1763 -0.602 -0.0176
| 21> H 1.8296 1.4903 0.0025
| 22> H 4.723 0.9837 0.0403
| 23> H 4.9809 -1.2685 -0.0007
| 24> H 2.0875 -0.7619 -0.0392
| 25> *
| 26>
| 27>
| 28>                          ****END OF INPUT****
 Total Charge           Charge          ....    0
 Multiplicity           Mult            ....    1
 Number of Electrons    NEL             ....   30
Dispersion correction           -0.008430381
FINAL SINGLE POINT ENERGY      -187.981945671171
Dispersion correction            ... done
Dispersion correction           -0.008421100
FINAL SINGLE POINT ENERGY      -187.984575994110
Dispersion correction            ... done
Dispersion correction           -0.008401544
FINAL SINGLE POINT ENERGY      -187.985019982200
Dispersion correction            ... done
                    ***********************HURRAY********************

CARTESIAN COORDINATES (ANGSTROEM)
---------------------------------
  N      2.822496    1.833313    0.025639
  C      3.605224    0.827905    0.018353
  N      3.987985   -1.611508   -0.024164
  C      3.205247   -0.606108   -0.016919
  H      1.840014    1.509484    0.003201
  H      4.694538    1.016710    0.040902
  H      4.970463   -1.287669   -0.001709
  H      2.115935   -0.794926   -0.039502

 Multiplicity           Mult            ....    1
 Number of Electrons    NEL             ....   30
 Basis Dimension        Dim             ....   76

ORBITAL ENERGIES
----------------

  NO   OCC          E(Eh)            E(eV)
   0   2.0000     -14.340988      -390.2381
   1   2.0000     -14.340985      -390.2380
   2   2.0000     -10.248534      -278.8768
   3   2.0000     -10.248325      -278.8711
   4   2.0000      -0.935895       -25.4670
   5   2.0000      -0.905069       -24.6282
   6   2.0000      -0.667691       -18.1688
   7   2.0000      -0.603965       -16.4347
   8   2.0000      -0.521004       -14.1772
   9   2.0000      -0.464472       -12.6389
  10   2.0000      -0.410916       -11.1816
  11   2.0000      -0.384177       -10.4540
  12   2.0000      -0.313552        -8.5322
  13   2.0000      -0.311517        -8.4768
  14   2.0000      -0.265899        -7.2355
  15   0.0000      -0.069699        -1.8966
  16   0.0000       0.046491         1.2651
  17   0.0000       0.054421         1.4809
  18   0.0000       0.088031         2.3954
  19   0.0000       0.107801         2.9334

-------
TIMINGS
-------

Dispersion correction           -0.008398132
FINAL SINGLE POINT ENERGY      -187.985030998333

DIPOLE MOMENT
-------------
                                X             Y             Z
Electronic contribution:     -0.00000       0.00000       0.00000
Nuclear contribution   :     -0.00000      -0.00000      -0.00002
                        -----------------------------------------
Total Dipole Moment    :     -0.00001      -0.00000      -0.00001
                        -----------------------------------------
Magnitude (a.u.)       :      0.00001
Magnitude (Debye)      :      0.00003

                             ****ORCA TERMINATED NORMALLY****
TOTAL RUN TIME: 0 days 0 hours 0 minutes 31 seconds 109 msec
