                         Program Version 4.0.1.2 - RELEASE -
|  1> %pal nprocs 6 end
|  2> %maxcore 1000
|  3> ! b3lyp TIGHTSCF nopop D3BJ
|  4> ! cc-pvdz def2/J RIJCOSX
|  5> ! Opt
|  6>
|  7> %geom
|  8> maxiter 60
|  9> TolE 1e-4
| 10> TolRMSG 2e-3
| 11> TolMaxG 3e-3
| 12> TolRMSD 2e-2
| 13> TolMaxD 3e-2
| 14> end
| 15>
| 16> *xyz 0 1
| 17> C 1.6314 -0.7082 -0.072
| 18> N 1.0122 -1.9124 -0.1941
| 19> N 0.9966 0.409 -0.0391
| 20> C 1.6444 1.6098 0.0835
| 21> N 2.9145 1.7885 0.1785
| 22> C -2.5156 1.6177 -0.118
| 23> O -1.9668 2.6991 -0.2789
| 24> N -1.844 0.4331 -0.0139
| 25> C -2.4171 -0.7925 0.1658
| 26> O -1.773 -1.8317 0.2536
| 27> H 2.726 -0.8227 -0.0146
| 28> H 1.4702 -2.7248 0.2013
| 29> H -0.0005 -1.9219 -0.038
| 30> H 0.9932 2.5014 0.1032
| 31> H 3.4392 0.9215 0.1455
| 32> H -3.6106 1.5167 -0.0428
| 33> H -0.8277 0.4673 -0.0799
| 34> H -3.5175 -0.7692 0.2265
| 35> *
| 36>
| 37>
| 38>                          ****END OF INPUT****
 Total Charge           Charge          ....    0
 Multiplicity           Mult            ....    1
 Number of Electrons    NEL             ....   76
Dispersion correction           -0.026385960
FINAL SINGLE POINT ENERGY      -526.469513803611
Dispersion correction            ... done
Dispersion correction           -0.025934839
FINAL SINGLE POINT ENERGY      -526.475671123941
Dispersion correction            ... done
Dispersion correction           -0.026038457
FINAL SINGLE POINT ENERGY      -526.477155809245
Dispersion correction            ... done
FINAL SINGLE POINT ENERGY      -526.477673016834
FINAL SINGLE POINT ENERGY      -526.477814806690
FINAL SINGLE POINT ENERGY      -526.477992330069
FINAL SINGLE POINT ENERGY      -526.478238526462
FINAL SINGLE POINT ENERGY      -526.478646069949
FINAL SINGLE POINT ENERGY      -526.479171586182
FINAL SINGLE POINT ENERGY      -526.479401709146
Dispersion correction            ... done
Dispersion correction           -0.026137467
FINAL SINGLE POINT ENERGY      -526.479486776589
Dispersion correction            ... done
Dispersion correction           -0.026132611
FINAL SINGLE POINT ENERGY      -526.479514330103
Dispersion correction            ... done
                    ***********************HURRAY********************

CARTESIAN COORDINATES (ANGSTROEM)
---------------------------------
  C      1.624243   -0.736905   -0.095698
  N      1.028675   -1.933776    0.008728
  N      0.979144    0.384617    0.010766
  C      1.695512    1.597793   -0.028531
  N      2.899841    1.858736    0.311546
  C     -2.508690    1.625875   -0.109653
  O     -1.977319    2.698267   -0.286882
  N     -1.818305    0.433301    0.035534
  C     -2.451217   -0.763240    0.208411
  O     -1.879339   -1.840896    0.308544
  H      2.710637   -0.764467   -0.288423
  H      1.549747   -2.766848   -0.229460
  H      0.007100   -1.994871    0.116949
  H      1.064332    2.427208   -0.379927
  H      3.364267    1.012475    0.675434
  H     -3.616528    1.496779   -0.046459
  H     -0.755547    0.434981   -0.001012
  H     -3.561653   -0.688331    0.256734

 Multiplicity           Mult            ....    1
 Number of Electrons    NEL             ....   76
 Basis Dimension        Dim             ....  180

ORBITAL ENERGIES
----------------

  NO   OCC          E(Eh)            E(eV)
   0   2.0000     -19.149043      -521.0720
   1   2.0000     -19.138194      -520.7767
   2   2.0000     -14.373533      -391.1237
   3   2.0000     -14.370068      -391.0294
   4   2.0000     -14.325388      -389.8136
   5   2.0000     -14.301003      -389.1501
   6   2.0000     -10.318034      -280.7680
   7   2.0000     -10.309259      -280.5292
   8   2.0000     -10.289006      -279.9781
   9   2.0000     -10.243971      -278.7526
  10   2.0000      -1.071956       -29.1694
  11   2.0000      -1.055735       -28.7280
  12   2.0000      -0.978921       -26.6378
  13   2.0000      -0.940964       -25.6049
  14   2.0000      -0.917104       -24.9557
  15   2.0000      -0.847300       -23.0562
  16   2.0000      -0.670597       -18.2479
  17   2.0000      -0.663764       -18.0619
  18   2.0000      -0.639843       -17.4110
  19   2.0000      -0.597081       -16.2474
  20   2.0000      -0.561882       -15.2896
  21   2.0000      -0.535517       -14.5722
  22   2.0000      -0.507620       -13.8130
  23   2.0000      -0.494471       -13.4552
  24   2.0000      -0.468340       -12.7442
  25   2.0000      -0.453418       -12.3381
  26   2.0000      -0.452050       -12.3009
  27   2.0000      -0.434750       -11.8302
  28   2.0000      -0.424393       -11.5483
  29   2.0000      -0.398706       -10.8493
  30   2.0000      -0.394419       -10.7327
  31   2.0000      -0.339292        -9.2326
  32   2.0000      -0.312499        -8.5035
  33   2.0000      -0.292358        -7.9555
  34   2.0000      -0.291987        -7.9454
  35   2.0000      -0.269138        -7.3236
  36   2.0000      -0.252918        -6.8823
  37   2.0000      -0.245692        -6.6856
  38   0.0000      -0.037458        -1.0193
  39   0.0000      -0.028198        -0.7673
  40   0.0000       0.028827         0.7844
  41   0.0000       0.041187         1.1207
  42   0.0000       0.060195         1.6380

-------
TIMINGS
-------

Dispersion correction           -0.026122097
FINAL SINGLE POINT ENERGY      -526.479505558745

DIPOLE MOMENT
-------------
                                X             Y             Z
Electronic contribution:     -2.94232       1.17156       0.00578
Nuclear contribution   :      2.63408      -3.07976      -0.17707
                        -----------------------------------------
Total Dipole Moment    :     -0.30824      -1.90819      -0.17130
                        -----------------------------------------
Magnitude (a.u.)       :      1.94051
Magnitude (Debye)      :      4.93237

                             ****ORCA TERMINATED NORMALLY****
TOTAL RUN TIME: 0 days 0 hours 6 minutes 4 seconds 993 msec
