                         Program Version 4.0.1.2 - RELEASE -
|  1> %pal nprocs 6 end
|  2> %maxcore 1000
|  3> ! b3lyp TIGHTSCF nopop D3BJ
|  4> ! cc-pvdz def2/J RIJCOSX
|  5> ! Opt
|  6>
|  7> %geom
|  8> maxiter 60
|  9> TolE 1e-4
| 10> TolRMSG 2e-3
| 11> TolMaxG 3e-3
| 12> TolRMSD 2e-2
| 13> TolMaxD 3e-2
| 14> end
| 15>
| 16> *xyz 0 1
| 17> C 1.6088 -0.6866 0.014
| 18> N 0.9912 -1.8742 -0.1495
| 19> N 1.0003 0.4461 -0.0148
| 20> N -1.8154 0.3609 -0.041
| 21> C -2.4229 -0.8437 0.0983
| 22> O -1.8118 -1.8935 0.2441
| 23> H 2.6992 -0.7659 0.1656
| 24> H 1.3794 -2.6764 0.3297
| 25> H -0.0315 -1.847 -0.0675
| 26> H 1.6957 1.1916 0.1204
| 27> H -2.3151 1.2184 -0.2182
| 28> H -0.7885 0.402 -0.0548
| 29> H -3.5222 -0.7798 0.063
| 30> *
| 31>
| 32>
| 33>                          ****END OF INPUT****
 Total Charge           Charge          ....    0
 Multiplicity           Mult            ....    1
 Number of Electrons    NEL             ....   48
Dispersion correction           -0.014684272
FINAL SINGLE POINT ENERGY      -319.776671039127
Dispersion correction            ... done
Dispersion correction           -0.014347688
FINAL SINGLE POINT ENERGY      -319.778954682681
Dispersion correction            ... done
Dispersion correction           -0.014318412
FINAL SINGLE POINT ENERGY      -319.779608596479
Dispersion correction            ... done
Dispersion correction           -0.014331220
FINAL SINGLE POINT ENERGY      -319.780032198848
Dispersion correction            ... done
Dispersion correction           -0.014364060
FINAL SINGLE POINT ENERGY      -319.780183273483
Dispersion correction            ... done
                    ***********************HURRAY********************

CARTESIAN COORDINATES (ANGSTROEM)
---------------------------------
  C      1.644335   -0.701535    0.040968
  N      1.005281   -1.894068   -0.088841
  N      1.040108    0.435811   -0.041706
  N     -1.843144    0.388961   -0.006941
  C     -2.438542   -0.811132    0.063397
  O     -1.869558   -1.899127    0.175299
  H      2.736374   -0.792178    0.187085
  H      1.486167   -2.700096    0.293821
  H     -0.023731   -1.893086    0.003912
  H      1.712559    1.201728    0.030091
  H     -2.425039    1.206020   -0.145385
  H     -0.803461    0.476533   -0.042001
  H     -3.554149   -0.765932    0.019600

 Multiplicity           Mult            ....    1
 Number of Electrons    NEL             ....   48
 Basis Dimension        Dim             ....  119

ORBITAL ENERGIES
----------------

  NO   OCC          E(Eh)            E(eV)
   0   2.0000     -19.100500      -519.7510
   1   2.0000     -14.330191      -389.9443
   2   2.0000     -14.325129      -389.8066
   3   2.0000     -14.292662      -388.9231
   4   2.0000     -10.276432      -279.6359
   5   2.0000     -10.253690      -279.0171
   6   2.0000      -1.018868       -27.7248
   7   2.0000      -0.930705       -25.3258
   8   2.0000      -0.887980       -24.1632
   9   2.0000      -0.839705       -22.8495
  10   2.0000      -0.607225       -16.5234
  11   2.0000      -0.589620       -16.0444
  12   2.0000      -0.541213       -14.7271
  13   2.0000      -0.528315       -14.3762
  14   2.0000      -0.477244       -12.9865
  15   2.0000      -0.445738       -12.1292
  16   2.0000      -0.429573       -11.6893
  17   2.0000      -0.399459       -10.8698
  18   2.0000      -0.388821       -10.5804
  19   2.0000      -0.362111        -9.8535
  20   2.0000      -0.276169        -7.5149
  21   2.0000      -0.256077        -6.9682
  22   2.0000      -0.244428        -6.6512
  23   2.0000      -0.230993        -6.2856
  24   0.0000       0.033580         0.9137
  25   0.0000       0.040172         1.0931
  26   0.0000       0.057298         1.5592
  27   0.0000       0.069432         1.8894
  28   0.0000       0.099662         2.7119

-------
TIMINGS
-------

Dispersion correction           -0.014378104
FINAL SINGLE POINT ENERGY      -319.780249209170

DIPOLE MOMENT
-------------
                                X             Y             Z
Electronic contribution:     -1.44831      -1.17299       0.02189
Nuclear contribution   :      1.93296       1.84990       0.14366
                        -----------------------------------------
Total Dipole Moment    :      0.48465       0.67691       0.16555
                        -----------------------------------------
Magnitude (a.u.)       :      0.84882
Magnitude (Debye)      :      2.15754

                             ****ORCA TERMINATED NORMALLY****
TOTAL RUN TIME: 0 days 0 hours 1 minutes 23 seconds 272 msec
