                         Program Version 4.0.1.2 - RELEASE -
|  1> %pal nprocs 6 end
|  2> %maxcore 1000
|  3> ! b3lyp TIGHTSCF nopop D3BJ
|  4> ! cc-pvdz def2/J RIJCOSX
|  5> ! Opt
|  6>
|  7> %geom
|  8> maxiter 60
|  9> TolE 1e-4
| 10> TolRMSG 2e-3
| 11> TolMaxG 3e-3
| 12> TolRMSD 2e-2
| 13> TolMaxD 3e-2
| 14> end
| 15>
| 16> *xyz 0 1
| 17> N 4.9494 0.5173 0.0029
| 18> C 5.2018 -0.8251 0.0013
| 19> N 4.0898 -1.5234 -0.0012
| 20> C 3.0801 -0.5961 -0.001
| 21> C 3.5917 0.6799 0.0016
| 22> H 5.6448 1.2507 0.0049
| 23> H 6.2052 -1.2296 0.0019
| 24> H 2.0404 -0.897 -0.0027
| 25> H 3.124 1.6538 0.0026
| 26> *
| 27>
| 28>
| 29>                          ****END OF INPUT****
 Total Charge           Charge          ....    0
 Multiplicity           Mult            ....    1
 Number of Electrons    NEL             ....   36
Dispersion correction           -0.011311565
FINAL SINGLE POINT ENERGY      -226.110072514841
Dispersion correction            ... done
Dispersion correction           -0.011349234
FINAL SINGLE POINT ENERGY      -226.110404473979
Dispersion correction            ... done
                    ***********************HURRAY********************

CARTESIAN COORDINATES (ANGSTROEM)
---------------------------------
  N      4.956433    0.518703    0.002827
  C      5.206966   -0.827859    0.001242
  N      4.090456   -1.528841   -0.001201
  C      3.074015   -0.596842   -0.000991
  C      3.586605    0.682624    0.001586
  H      5.650023    1.255339    0.004962
  H      6.216225   -1.234814    0.001958
  H      2.028693   -0.899982   -0.002710
  H      3.117784    1.662171    0.002626

 Multiplicity           Mult            ....    1
 Number of Electrons    NEL             ....   36
 Basis Dimension        Dim             ....   90

ORBITAL ENERGIES
----------------

  NO   OCC          E(Eh)            E(eV)
   0   2.0000     -14.384398      -391.4194
   1   2.0000     -14.300510      -389.1367
   2   2.0000     -10.232764      -278.4477
   3   2.0000     -10.210540      -277.8429
   4   2.0000     -10.191184      -277.3162
   5   2.0000      -1.007055       -27.4034
   6   2.0000      -0.863552       -23.4985
   7   2.0000      -0.736252       -20.0344
   8   2.0000      -0.609542       -16.5865
   9   2.0000      -0.582822       -15.8594
  10   2.0000      -0.554114       -15.0782
  11   2.0000      -0.434411       -11.8209
  12   2.0000      -0.430891       -11.7251
  13   2.0000      -0.423906       -11.5351
  14   2.0000      -0.398966       -10.8564
  15   2.0000      -0.276433        -7.5221
  16   2.0000      -0.261097        -7.1048
  17   2.0000      -0.225374        -6.1327
  18   0.0000       0.029897         0.8135
  19   0.0000       0.048679         1.3246
  20   0.0000       0.070793         1.9264
  21   0.0000       0.102780         2.7968
  22   0.0000       0.107543         2.9264

-------
TIMINGS
-------

Dispersion correction           -0.011350605
FINAL SINGLE POINT ENERGY      -226.110423031915

DIPOLE MOMENT
-------------
                                X             Y             Z
Electronic contribution:      0.45852      -0.68257      -0.00067
Nuclear contribution   :      0.17669       1.96012       0.00356
                        -----------------------------------------
Total Dipole Moment    :      0.63521       1.27755       0.00289
                        -----------------------------------------
Magnitude (a.u.)       :      1.42676
Magnitude (Debye)      :      3.62652

                             ****ORCA TERMINATED NORMALLY****
TOTAL RUN TIME: 0 days 0 hours 0 minutes 30 seconds 845 msec
