                         Program Version 4.0.1.2 - RELEASE -
|  1> %pal nprocs 6 end
|  2> %maxcore 1000
|  3> ! b3lyp TIGHTSCF nopop D3BJ
|  4> ! cc-pvdz def2/J RIJCOSX
|  5> ! Opt
|  6>
|  7> %geom
|  8> maxiter 60
|  9> TolE 1e-4
| 10> TolRMSG 2e-3
| 11> TolMaxG 3e-3
| 12> TolRMSD 2e-2
| 13> TolMaxD 3e-2
| 14> end
| 15>
| 16> *xyz 0 1
| 17> N -1.8508 0.3994 -0.0012
| 18> C -2.454 -0.8181 0.0001
| 19> O -1.8366 -1.8712 0.0004
| 20> H -2.3702 1.2653 -0.0015
| 21> H -0.8396 0.4301 -0.0019
| 22> H -3.5541 -0.7552 0.0008
| 23> *
| 24>
| 25>
| 26>                          ****END OF INPUT****
 Total Charge           Charge          ....    0
 Multiplicity           Mult            ....    1
 Number of Electrons    NEL             ....   24
Dispersion correction           -0.004300966
FINAL SINGLE POINT ENERGY      -169.817851267178
Dispersion correction            ... done
Dispersion correction           -0.004296273
FINAL SINGLE POINT ENERGY      -169.818149640932
Dispersion correction            ... done
Dispersion correction           -0.004295140
FINAL SINGLE POINT ENERGY      -169.818207475298
Dispersion correction            ... done
                    ***********************HURRAY********************

CARTESIAN COORDINATES (ANGSTROEM)
---------------------------------
  N     -1.843360    0.399921   -0.001250
  C     -2.440538   -0.824091   -0.000158
  O     -1.851800   -1.885329    0.000560
  H     -2.382704    1.255428   -0.001393
  H     -0.829495    0.449657   -0.001916
  H     -3.557404   -0.745285    0.000858

 Multiplicity           Mult            ....    1
 Number of Electrons    NEL             ....   24
 Basis Dimension        Dim             ....   57

ORBITAL ENERGIES
----------------

  NO   OCC          E(Eh)            E(eV)
   0   2.0000     -19.104198      -519.8517
   1   2.0000     -14.355148      -390.6234
   2   2.0000     -10.284804      -279.8638
   3   2.0000      -1.030113       -28.0308
   4   2.0000      -0.904196       -24.6044
   5   2.0000      -0.619431       -16.8556
   6   2.0000      -0.550617       -14.9831
   7   2.0000      -0.472694       -12.8627
   8   2.0000      -0.406839       -11.0706
   9   2.0000      -0.398789       -10.8516
  10   2.0000      -0.268925        -7.3178
  11   2.0000      -0.250631        -6.8200
  12   0.0000       0.031693         0.8624
  13   0.0000       0.050185         1.3656
  14   0.0000       0.080960         2.2030
  15   0.0000       0.134926         3.6715
  16   0.0000       0.251346         6.8395

-------
TIMINGS
-------

Dispersion correction           -0.004295056
FINAL SINGLE POINT ENERGY      -169.818217232806

DIPOLE MOMENT
-------------
                                X             Y             Z
Electronic contribution:      0.41758      -1.52037       0.00049
Nuclear contribution   :     -0.62444       2.98275      -0.00149
                        -----------------------------------------
Total Dipole Moment    :     -0.20686       1.46238      -0.00100
                        -----------------------------------------
Magnitude (a.u.)       :      1.47694
Magnitude (Debye)      :      3.75409

                             ****ORCA TERMINATED NORMALLY****
TOTAL RUN TIME: 0 days 0 hours 0 minutes 23 seconds 276 msec
